20
Lattice="5.647097898892587 1.3964294839912764e-61 1.3436261989758777e-43 -2.510750088825146e-62 5.7113706774722734 5.555347671763641e-18 -4.712445258189625e-44 5.71956732402382e-18 8.16816843506216" Properties=species:S:1:pos:R:3:spacegroup_kinds:I:1:forces:R:3 spacegroup="P 1" unit_cell=conventional occupancy="_JSON {\"0\": {\"In\": 1}, \"1\": {\"In\": 1}, \"2\": {\"In\": 1}, \"3\": {\"In\": 1}, \"4\": {\"In\": 1}, \"5\": {\"In\": 1}, \"6\": {\"In\": 1}, \"7\": {\"In\": 1}, \"8\": {\"O\": 1}, \"9\": {\"O\": 1}, \"10\": {\"O\": 1}, \"11\": {\"O\": 1}, \"12\": {\"O\": 1}, \"13\": {\"O\": 1}, \"14\": {\"O\": 1}, \"15\": {\"O\": 1}, \"16\": {\"O\": 1}, \"17\": {\"O\": 1}, \"18\": {\"O\": 1}, \"19\": {\"O\": 1}}" n_minim_iter=6 energy=-22574.920452024788 stress="0.012979666832772492 -8.433364535202397e-14 -1.3790293574907513e-13 -8.433364535202397e-14 0.012981935169161041 2.4269084010654126e-13 -1.3790293574907513e-13 2.4269084010654126e-13 0.012969986736463277" free_energy=-22574.920452024788 pbc="T T T"
In       1.39888991       3.00986786       0.93964454        0      -0.00275161      -0.00064992      -0.00165918
In       1.42465904       0.15418252       3.14443968        1       0.00275161      -0.00064992       0.00165918
In       1.42465904       2.70150282       5.02372876        2       0.00275161       0.00064993      -0.00165918
In       1.39888991       5.55718816       7.22852389        3      -0.00275161       0.00064993       0.00165918
In       4.24820799       2.70150282       7.22852389        4       0.00275161       0.00064992       0.00165918
In       4.22243886       5.55718816       5.02372876        5      -0.00275161       0.00064992      -0.00165918
In       4.22243886       3.00986786       3.14443968        6      -0.00275161      -0.00064993       0.00165918
In       4.24820799       0.15418252       0.93964454        7       0.00275161      -0.00064993      -0.00165918
O        2.20446080       3.44648975       6.93819374        8      -0.00338160      -0.00085174      -0.00331866
O        0.61908815       0.59080441       5.31405891        9       0.00338160      -0.00085174       0.00331866
O        0.61908815       2.26488093       2.85410953       10       0.00338160       0.00085174      -0.00331866
O        2.20446080       5.12056626       1.22997469       11      -0.00338160       0.00085174       0.00331866
O        3.44263710       2.26488093       1.22997469       12       0.00338160       0.00085174       0.00331866
O        5.02800975       5.12056626       2.85410953       13      -0.00338160       0.00085174      -0.00331866
O        5.02800975       3.44648975       5.31405891       14      -0.00338160      -0.00085174       0.00331866
O        3.44263710       0.59080441       6.93819374       15       0.00338160      -0.00085175      -0.00331866
O        5.41100776       4.28352801       0.00000000       16       0.00503562       0.00000000      -0.00000000
O        3.05963909       1.42784267       4.08408422       17      -0.00503562       0.00000000       0.00000000
O        0.23609014       1.42784267       0.00000000       18      -0.00503562       0.00000000      -0.00000000
O        2.58745881       4.28352801       4.08408422       19       0.00503562       0.00000000       0.00000000
