20
Lattice="5.7972512887174314 -1.2641587252740771e-59 -3.074853555890288e-43 1.7059138760786938e-59 5.995750816122336 4.3501386056087397e-17 5.498963606803031e-43 -4.5671987208962296e-17 9.242954084203728" Properties=species:S:1:pos:R:3:spacegroup_kinds:I:1:forces:R:3 spacegroup="P 1" unit_cell=conventional occupancy="_JSON {\"0\": {\"In\": 1}, \"1\": {\"In\": 1}, \"2\": {\"In\": 1}, \"3\": {\"In\": 1}, \"4\": {\"In\": 1}, \"5\": {\"In\": 1}, \"6\": {\"In\": 1}, \"7\": {\"In\": 1}, \"8\": {\"O\": 1}, \"9\": {\"O\": 1}, \"10\": {\"O\": 1}, \"11\": {\"O\": 1}, \"12\": {\"O\": 1}, \"13\": {\"O\": 1}, \"14\": {\"O\": 1}, \"15\": {\"O\": 1}, \"16\": {\"O\": 1}, \"17\": {\"O\": 1}, \"18\": {\"O\": 1}, \"19\": {\"O\": 1}}" n_minim_iter=7 energy=-22571.510284533564 stress="0.11635683869765376 -9.384672204286921e-13 -2.290244392932744e-13 -9.384672204286921e-13 0.1163826728919273 -3.2400056939255955e-13 -2.290244392932744e-13 -3.2400056939255955e-13 0.11636601223487471" free_energy=-22571.510284533564 pbc="T T T"
In       1.35961897       3.25832650       1.15848355        0      -0.00137299       0.00377404      -0.00565016
In       1.53900667       0.26045109       3.46299349        1       0.00137299       0.00377404       0.00565016
In       1.53900667       2.73742432       5.77996059        2       0.00137299      -0.00377404      -0.00565016
In       1.35961897       5.73529973       8.08447054        3      -0.00137299      -0.00377404       0.00565016
In       4.43763232       2.73742432       8.08447054        4       0.00137299      -0.00377404       0.00565016
In       4.25824462       5.73529973       5.77996059        5      -0.00137299      -0.00377404      -0.00565016
In       4.25824462       3.25832650       3.46299349        6      -0.00137299       0.00377404       0.00565016
In       4.43763232       0.26045109       1.15848355        7       0.00137299       0.00377404      -0.00565016
O        2.28756442       3.55240059       7.78793317        8       0.00471400      -0.00393902       0.00200625
O        0.61106122       0.55452518       6.07649796        9      -0.00471400      -0.00393902      -0.00200625
O        0.61106122       2.44335023       3.16645613       10      -0.00471400       0.00393902       0.00200625
O        2.28756442       5.44122563       1.45502091       11       0.00471400       0.00393902      -0.00200625
O        3.50968686       2.44335023       1.45502091       12      -0.00471400       0.00393902      -0.00200625
O        5.18619007       5.44122563       3.16645613       13       0.00471400       0.00393902       0.00200625
O        5.18619007       3.55240059       6.07649796       14       0.00471400      -0.00393902      -0.00200625
O        3.50968686       0.55452518       7.78793317       15      -0.00471400      -0.00393902       0.00200625
O        5.53062036       4.49681311       0.00000000       16      -0.00294153       0.00000000       0.00000000
O        3.16525658       1.49893770       4.62147704       17       0.00294153       0.00000000      -0.00000000
O        0.26663093       1.49893770       0.00000000       18       0.00294153      -0.00000000       0.00000000
O        2.63199471       4.49681311       4.62147704       19      -0.00294153       0.00000000      -0.00000000
