20
Lattice="5.491052773151857 -1.7040078700658985e-60 -8.640095580361418e-45 4.482487352715208e-60 5.661636536557537 7.446978406168082e-17 1.0797332840656595e-43 8.795575357504021e-17 7.8540287381254545" Properties=species:S:1:pos:R:3:spacegroup_kinds:I:1:forces:R:3 spacegroup="P 1" unit_cell=conventional occupancy="_JSON {\"0\": {\"In\": 1}, \"1\": {\"In\": 1}, \"2\": {\"In\": 1}, \"3\": {\"In\": 1}, \"4\": {\"In\": 1}, \"5\": {\"In\": 1}, \"6\": {\"In\": 1}, \"7\": {\"In\": 1}, \"8\": {\"O\": 1}, \"9\": {\"O\": 1}, \"10\": {\"O\": 1}, \"11\": {\"O\": 1}, \"12\": {\"O\": 1}, \"13\": {\"O\": 1}, \"14\": {\"O\": 1}, \"15\": {\"O\": 1}, \"16\": {\"O\": 1}, \"17\": {\"O\": 1}, \"18\": {\"O\": 1}, \"19\": {\"O\": 1}}" n_minim_iter=7 energy=-22574.81686403357 stress="-0.0224146489020074 -2.0728595008372601e-13 7.927363110766134e-13 -2.0728595008372601e-13 -0.02249462858551918 -2.063787674753736e-13 7.927363110766134e-13 -2.063787674753736e-13 -0.022340189983558" free_energy=-22574.81686403357 pbc="T T T"
In       1.36727851       3.00755642       0.89584857        0      -0.00072901       0.00009695       0.00090018
In       1.37824788       0.17673815       3.03116580        1       0.00072901       0.00009695      -0.00090018
In       1.37824788       2.65408012       4.82286293        2       0.00072901      -0.00009695       0.00090018
In       1.36727851       5.48489839       6.95818017        3      -0.00072901      -0.00009695      -0.00090018
In       4.12377426       2.65408012       6.95818017        4       0.00072901      -0.00009695      -0.00090018
In       4.11280490       5.48489839       4.82286293        5      -0.00072901      -0.00009695       0.00090018
In       4.11280490       3.00755642       3.03116580        6      -0.00072901       0.00009695      -0.00090018
In       4.12377426       0.17673815       0.89584857        7       0.00072901       0.00009695       0.00090018
O        2.13826520       3.42272814       6.67119840        8       0.00164732      -0.00437164       0.00291936
O        0.60726119       0.59190987       5.10984471        9      -0.00164732      -0.00437164      -0.00291936
O        0.60726119       2.23890840       2.74418403       10      -0.00164732       0.00437164       0.00291936
O        2.13826520       5.06972666       1.18283034       11       0.00164732       0.00437164      -0.00291936
O        3.35278758       2.23890840       1.18283034       12      -0.00164732       0.00437164      -0.00291936
O        4.88379158       5.06972666       2.74418403       13       0.00164732       0.00437164       0.00291936
O        4.88379158       3.42272814       5.10984471       14       0.00164732      -0.00437164      -0.00291936
O        3.35278758       0.59190987       6.67119840       15      -0.00164732      -0.00437164       0.00291936
O        5.25570927       4.24622740       0.00000000       16      -0.00392865      -0.00000000       0.00000000
O        2.98086989       1.41540913       3.92701437       17       0.00392865      -0.00000000      -0.00000000
O        0.23534350       1.41540913       0.00000000       18       0.00392865      -0.00000000       0.00000000
O        2.51018289       4.24622740       3.92701437       19      -0.00392865       0.00000000       0.00000000
