20
Lattice="5.5911192758548145 -7.432113797230105e-63 5.26387501785378e-44 3.4937777305170585e-64 5.684649619760908 7.655111478389326e-19 -7.61326307038721e-44 -1.0889597878472541e-18 8.086563940180914" Properties=species:S:1:pos:R:3:spacegroup_kinds:I:1:forces:R:3 spacegroup="P 1" unit_cell=conventional occupancy="_JSON {\"0\": {\"In\": 1}, \"1\": {\"In\": 1}, \"2\": {\"In\": 1}, \"3\": {\"In\": 1}, \"4\": {\"In\": 1}, \"5\": {\"In\": 1}, \"6\": {\"In\": 1}, \"7\": {\"In\": 1}, \"8\": {\"O\": 1}, \"9\": {\"O\": 1}, \"10\": {\"O\": 1}, \"11\": {\"O\": 1}, \"12\": {\"O\": 1}, \"13\": {\"O\": 1}, \"14\": {\"O\": 1}, \"15\": {\"O\": 1}, \"16\": {\"O\": 1}, \"17\": {\"O\": 1}, \"18\": {\"O\": 1}, \"19\": {\"O\": 1}}" n_minim_iter=1 energy=-22574.961650925652 stress="-0.00019712054333814258 1.4529150093010415e-13 4.350258599589003e-13 1.4529150093010415e-13 -0.00011254153563467357 1.5655274806408646e-13 4.350258599589003e-13 1.5655274806408646e-13 2.4634175944582374e-05" free_energy=-22574.961650925652 pbc="T T T"
In       1.38659851       3.00372132       0.92722585        0      -0.00203290      -0.00401345      -0.00489258
In       1.40896113       0.16139651       3.11605612        1       0.00203290      -0.00401345       0.00489258
In       1.40896113       2.68092830       4.97050782        2       0.00203290       0.00401345      -0.00489258
In       1.38659851       5.52325311       7.15933809        3      -0.00203290       0.00401345       0.00489258
In       4.20452077       2.68092830       7.15933809        4       0.00203290       0.00401345       0.00489258
In       4.18215815       5.52325311       4.97050782        5      -0.00203290       0.00401345      -0.00489258
In       4.18215815       3.00372132       3.11605612        6      -0.00203290      -0.00401345       0.00489258
In       4.20452077       0.16139651       0.92722585        7       0.00203290      -0.00401345      -0.00489258
O        2.18190760       3.43380394       6.86762563        8      -0.00362311      -0.00060009       0.00223715
O        0.61365204       0.59147913       5.26222028        9       0.00362311      -0.00060009      -0.00223715
O        0.61365204       2.25084568       2.82434366       10       0.00362311       0.00060009       0.00223715
O        2.18190760       5.09317049       1.21893831       11      -0.00362311       0.00060009      -0.00223715
O        3.40921167       2.25084568       1.21893831       12       0.00362311       0.00060009      -0.00223715
O        4.97746724       5.09317049       2.82434366       13      -0.00362311       0.00060009       0.00223715
O        4.97746724       3.43380394       5.26222028       14      -0.00362311      -0.00060009      -0.00223715
O        3.40921167       0.59147913       6.86762563       15       0.00362311      -0.00060009       0.00223715
O        5.35769352       4.26348721       0.00000000       16       0.00402173       0.00000000      -0.00000000
O        3.02898540       1.42116240       4.04328197       17      -0.00402173       0.00000000       0.00000000
O        0.23342576       1.42116240       0.00000000       18      -0.00402173       0.00000000      -0.00000000
O        2.56213388       4.26348721       4.04328197       19       0.00402173      -0.00000000      -0.00000000
