20
Lattice="6.263410431905581 2.8163919627973593e-59 -1.4197878289656455e-46 -2.843851605011849e-59 6.291525574687164 -6.536733548934149e-15 1.1088517519743225e-46 5.082363526624292e-15 4.891712331280174" Properties=species:S:1:pos:R:3:spacegroup_kinds:I:1:forces:R:3 spacegroup="P 1" unit_cell=conventional occupancy="_JSON {\"0\": {\"In\": 1}, \"1\": {\"In\": 1}, \"2\": {\"In\": 1}, \"3\": {\"In\": 1}, \"4\": {\"In\": 1}, \"5\": {\"In\": 1}, \"6\": {\"In\": 1}, \"7\": {\"In\": 1}, \"8\": {\"O\": 1}, \"9\": {\"O\": 1}, \"10\": {\"O\": 1}, \"11\": {\"O\": 1}, \"12\": {\"O\": 1}, \"13\": {\"O\": 1}, \"14\": {\"O\": 1}, \"15\": {\"O\": 1}, \"16\": {\"O\": 1}, \"17\": {\"O\": 1}, \"18\": {\"O\": 1}, \"19\": {\"O\": 1}}" n_minim_iter=1 energy=-22578.30380866924 stress="0.11177843193617164 7.694819761920431e-14 -5.312573014822776e-13 7.694819761920431e-14 0.10298591283827076 5.836053166276502e-13 -5.312573014822776e-13 5.836053166276502e-13 0.10108477997875553" free_energy=-22578.30380866924 pbc="T T T"
In       1.34093101       3.62167779       0.82722299        0       0.07239279      -0.20723977       0.01716422
In       1.79077421       0.47591500       1.61863317        1      -0.07239279      -0.20723977      -0.01716422
In       1.79077421       2.66984778       3.27307916        2      -0.07239279       0.20723977       0.01716422
In       1.34093101       5.81561057       4.06448934        3       0.07239279       0.20723977      -0.01716422
In       4.92247942       2.66984778       4.06448934        4      -0.07239279       0.20723977      -0.01716422
In       4.47263623       5.81561057       3.27307916        5       0.07239279       0.20723977       0.01716422
In       4.47263623       3.62167779       1.61863317        6       0.07239279      -0.20723977      -0.01716422
In       4.92247942       0.47591500       0.82722299        7      -0.07239279      -0.20723977       0.01716422
O        3.09721090       4.30404011       4.16241948        8      -0.01651552      -0.13708773      -0.01263280
O        0.03449432       1.15827732       3.17514902        9       0.01651552      -0.13708773       0.01263280
O        0.03449432       1.98748547       1.71656332       10       0.01651552       0.13708773      -0.01263280
O        3.09721090       5.13324826       0.72929285       11      -0.01651552       0.13708773       0.01263280
O        3.16619953       1.98748547       0.72929285       12       0.01651552       0.13708773       0.01263280
O        6.22891611       5.13324826       1.71656332       13      -0.01651552       0.13708773      -0.01263280
O        6.22891611       4.30404011       3.17514902       14      -0.01651552      -0.13708773       0.01263280
O        3.16619953       1.15827732       4.16241948       15       0.01651552      -0.13708773      -0.01263280
O        5.79969529       4.71864418      -0.00000000       16       0.04882225       0.00000000       0.00000000
O        3.59542036       1.57288139       2.44585617       17      -0.04882225       0.00000000       0.00000000
O        0.46371514       1.57288139      -0.00000000       18      -0.04882225      -0.00000000       0.00000000
O        2.66799007       4.71864418       2.44585617       19       0.04882225       0.00000000      -0.00000000
20
Lattice="6.237974181739323 2.806116141760526e-59 -1.4166396551433597e-46 -2.8459818118556696e-59 6.300586533525599 -6.217770041609409e-15 1.1097079795310077e-46 5.351882512370666e-15 4.9045954789205535" Properties=species:S:1:pos:R:3:spacegroup_kinds:I:1:forces:R:3 spacegroup="P 1" unit_cell=conventional occupancy="_JSON {\"0\": {\"In\": 1}, \"1\": {\"In\": 1}, \"2\": {\"In\": 1}, \"3\": {\"In\": 1}, \"4\": {\"In\": 1}, \"5\": {\"In\": 1}, \"6\": {\"In\": 1}, \"7\": {\"In\": 1}, \"8\": {\"O\": 1}, \"9\": {\"O\": 1}, \"10\": {\"O\": 1}, \"11\": {\"O\": 1}, \"12\": {\"O\": 1}, \"13\": {\"O\": 1}, \"14\": {\"O\": 1}, \"15\": {\"O\": 1}, \"16\": {\"O\": 1}, \"17\": {\"O\": 1}, \"18\": {\"O\": 1}, \"19\": {\"O\": 1}}" n_minim_iter=2 energy=-22578.30864643909 stress="0.1059820399937541 9.63795132553137e-13 -1.9155342105788513e-13 9.63795132553137e-13 0.10557401358659782 3.879607452770198e-13 -1.9155342105788513e-13 3.879607452770198e-13 0.10963355793901854" free_energy=-22578.30864643909 pbc="T T T"
In       1.33571970       3.62621916       0.82945755        0       0.07602179      -0.21339950       0.00487491
In       1.78326739       0.47592590       1.62284019        1      -0.07602179      -0.21339950      -0.00487491
In       1.78326739       2.67436737       3.28175529        2      -0.07602179       0.21339950       0.00487491
In       1.33571970       5.82466064       4.07513793        3       0.07602179       0.21339950      -0.00487491
In       4.90225448       2.67436737       4.07513793        4      -0.07602179       0.21339950      -0.00487491
In       4.45470679       5.82466064       3.28175529        5       0.07602179       0.21339950       0.00487491
In       4.45470679       3.62621916       1.62284019        6       0.07602179      -0.21339950      -0.00487491
In       4.90225448       0.47592590       0.82945755        7      -0.07602179      -0.21339950       0.00487491
O        3.08457940       4.30979253       4.17334075        8      -0.04219249      -0.13638045       0.00864683
O        0.03440769       1.15949927       3.18355247        9       0.04219249      -0.13638045      -0.00864683
O        0.03440769       1.99079400       1.72104301       10       0.04219249       0.13638045       0.00864683
O        3.08457940       5.14108727       0.73125473       11      -0.04219249       0.13638045      -0.00864683
O        3.15339478       1.99079400       0.73125473       12       0.04219249       0.13638045      -0.00864683
O        6.20356649       5.14108727       1.72104301       13      -0.04219249       0.13638045       0.00864683
O        6.20356649       4.30979253       3.18355247       14      -0.04219249      -0.13638045      -0.00864683
O        3.15339478       1.15949927       4.17334075       15       0.04219249      -0.13638045       0.00864683
O        5.77630026       4.72543990      -0.00000000       16       0.05650166      -0.00000000      -0.00000000
O        3.58066102       1.57514663       2.45229774       17      -0.05650166       0.00000000      -0.00000000
O        0.46167393       1.57514663       0.00000000       18      -0.05650166       0.00000000      -0.00000000
O        2.65731317       4.72543990       2.45229774       19       0.05650166      -0.00000000      -0.00000000
20
Lattice="6.227785981704958 3.732968372543374e-59 9.03825773429472e-45 -2.8565158548702307e-59 6.323787717661216 -6.1094313679838404e-15 5.48029349092205e-45 5.445501713797216e-15 4.894595253361186" Properties=species:S:1:pos:R:3:spacegroup_kinds:I:1:forces:R:3 spacegroup="P 1" unit_cell=conventional occupancy="_JSON {\"0\": {\"In\": 1}, \"1\": {\"In\": 1}, \"2\": {\"In\": 1}, \"3\": {\"In\": 1}, \"4\": {\"In\": 1}, \"5\": {\"In\": 1}, \"6\": {\"In\": 1}, \"7\": {\"In\": 1}, \"8\": {\"O\": 1}, \"9\": {\"O\": 1}, \"10\": {\"O\": 1}, \"11\": {\"O\": 1}, \"12\": {\"O\": 1}, \"13\": {\"O\": 1}, \"14\": {\"O\": 1}, \"15\": {\"O\": 1}, \"16\": {\"O\": 1}, \"17\": {\"O\": 1}, \"18\": {\"O\": 1}, \"19\": {\"O\": 1}}" n_minim_iter=3 energy=-22578.312883936967 stress="0.10672906574560988 4.369957437064486e-14 -4.0763369821863027e-13 4.369957437064486e-14 0.11195405835478585 5.267725994392388e-14 -4.0763369821863027e-13 5.267725994392388e-14 0.10596322321083826" free_energy=-22578.312883936967 pbc="T T T"
In       1.33438134       3.63715838       0.82785529        0       0.05375654      -0.11008573      -0.00428795
In       1.77951165       0.47526452       1.61944234        1      -0.05375654      -0.11008573       0.00428795
In       1.77951165       2.68662934       3.27515291        2      -0.05375654       0.11008573      -0.00428795
In       1.33438134       5.84852319       4.06673997        3       0.05375654       0.11008573       0.00428795
In       4.89340464       2.68662934       4.06673997        4      -0.05375654       0.11008573       0.00428795
In       4.44827433       5.84852319       3.27515291        5       0.05375654       0.11008573      -0.00428795
In       4.44827433       3.63715838       1.61944234        6       0.05375654      -0.11008573       0.00428795
In       4.89340464       0.47526452       0.82785529        7      -0.05375654      -0.11008573      -0.00428795
O        3.07913785       4.32410739       4.16487143        8      -0.02973798      -0.11127594      -0.01729907
O        0.03475514       1.16221353       3.17702145        9       0.02973798      -0.11127594       0.01729907
O        0.03475514       1.99968033       1.71757380       10       0.02973798       0.11127594      -0.01729907
O        3.07913785       5.16157419       0.72972383       11      -0.02973798       0.11127594       0.01729907
O        3.14864813       1.99968033       0.72972383       12       0.02973798       0.11127594       0.01729907
O        6.19303084       5.16157419       1.71757380       13      -0.02973798       0.11127594      -0.01729907
O        6.19303084       4.32410739       3.17702145       14      -0.02973798      -0.11127594       0.01729907
O        3.14864813       1.16221353       4.16487143       15       0.02973798      -0.11127594      -0.01729907
O        5.76747924       4.74284079      -0.00000000       16       0.06306657       0.00000000       0.00000000
O        3.57419973       1.58094693       2.44729763       17      -0.06306657       0.00000000       0.00000000
O        0.46030674       1.58094693       0.00000000       18      -0.06306657       0.00000000       0.00000000
O        2.65358625       4.74284079       2.44729763       19       0.06306657      -0.00000000      -0.00000000
20
Lattice="6.235621883313911 6.351488417694855e-59 3.656176253684082e-44 -2.8887253615499743e-59 6.3002434961251845 -6.084494579357264e-15 2.696556156818456e-44 5.456210604811432e-15 4.906712814341648" Properties=species:S:1:pos:R:3:spacegroup_kinds:I:1:forces:R:3 spacegroup="P 1" unit_cell=conventional occupancy="_JSON {\"0\": {\"In\": 1}, \"1\": {\"In\": 1}, \"2\": {\"In\": 1}, \"3\": {\"In\": 1}, \"4\": {\"In\": 1}, \"5\": {\"In\": 1}, \"6\": {\"In\": 1}, \"7\": {\"In\": 1}, \"8\": {\"O\": 1}, \"9\": {\"O\": 1}, \"10\": {\"O\": 1}, \"11\": {\"O\": 1}, \"12\": {\"O\": 1}, \"13\": {\"O\": 1}, \"14\": {\"O\": 1}, \"15\": {\"O\": 1}, \"16\": {\"O\": 1}, \"17\": {\"O\": 1}, \"18\": {\"O\": 1}, \"19\": {\"O\": 1}}" n_minim_iter=4 energy=-22578.319105126666 stress="0.11073812237226749 4.2697755822270143e-13 9.842592273733668e-13 4.2697755822270143e-13 0.1097832612724029 8.487050585236198e-13 9.842592273733668e-13 8.487050585236198e-13 0.1110029105496937" free_energy=-22578.319105126666 pbc="T T T"
In       1.33837366       3.61761775       0.83000463        0       0.04049232       0.04049408      -0.02776565
In       1.77943728       0.46749600       1.62335178        1      -0.04049232       0.04049408       0.02776565
In       1.77943728       2.68262574       3.28336103        2      -0.04049232      -0.04049408      -0.02776565
In       1.33837366       5.83274749       4.07670819        3       0.04049232      -0.04049408       0.02776565
In       4.89724822       2.68262574       4.07670819        4      -0.04049232      -0.04049408       0.02776565
In       4.45618461       5.83274749       3.28336103        5       0.04049232      -0.04049408      -0.02776565
In       4.45618461       3.61761775       1.62335178        6       0.04049232       0.04049408       0.02776565
In       4.89724822       0.46749600       0.83000463        7      -0.04049232       0.04049408      -0.02776565
O        3.08184570       4.30355494       4.17500549        8       0.02175071       0.02305713       0.04969666
O        0.03596524       1.15343319       3.18506373        9      -0.02175071       0.02305713      -0.04969666
O        0.03596524       1.99668856       1.72164908       10      -0.02175071      -0.02305713       0.04969666
O        3.08184570       5.14681031       0.73170732       11       0.02175071      -0.02305713      -0.04969666
O        3.15377618       1.99668856       0.73170732       12      -0.02175071      -0.02305713      -0.04969666
O        6.19965664       5.14681031       1.72164908       13       0.02175071      -0.02305713       0.04969666
O        6.19965664       4.30355494       3.18506373       14       0.02175071       0.02305713      -0.04969666
O        3.15377618       1.15343319       4.17500549       15      -0.02175071       0.02305713       0.04969666
O        5.77676220       4.72518262      -0.00000000       16       0.06092649      -0.00000000      -0.00000000
O        3.57667062       1.57506087       2.45335641       17      -0.06092649       0.00000000      -0.00000000
O        0.45885968       1.57506087       0.00000000       18      -0.06092649      -0.00000000      -0.00000000
O        2.65895126       4.72518262       2.45335641       19       0.06092649      -0.00000000       0.00000000
20
Lattice="6.233229197492977 6.347594643029549e-59 3.6537273319990645e-44 -2.8112059424643866e-59 6.306391278975146 -6.0722006461455004e-15 -1.689964139821374e-45 5.468288741289349e-15 4.9038111608968435" Properties=species:S:1:pos:R:3:spacegroup_kinds:I:1:forces:R:3 spacegroup="P 1" unit_cell=conventional occupancy="_JSON {\"0\": {\"In\": 1}, \"1\": {\"In\": 1}, \"2\": {\"In\": 1}, \"3\": {\"In\": 1}, \"4\": {\"In\": 1}, \"5\": {\"In\": 1}, \"6\": {\"In\": 1}, \"7\": {\"In\": 1}, \"8\": {\"O\": 1}, \"9\": {\"O\": 1}, \"10\": {\"O\": 1}, \"11\": {\"O\": 1}, \"12\": {\"O\": 1}, \"13\": {\"O\": 1}, \"14\": {\"O\": 1}, \"15\": {\"O\": 1}, \"16\": {\"O\": 1}, \"17\": {\"O\": 1}, \"18\": {\"O\": 1}, \"19\": {\"O\": 1}}" n_minim_iter=5 energy=-22578.320274234025 stress="0.10983879444224413 1.6533984075520864e-13 -6.48254547343879e-13 1.6533984075520864e-13 0.11079043621261576 -7.099784445100062e-13 -6.48254547343879e-13 -7.099784445100062e-13 0.10960293840851064" free_energy=-22578.320274234025 pbc="T T T"
In       1.33864109       3.62293872       0.82876361        0       0.02885869      -0.01185334      -0.00668644
In       1.77797351       0.46974308       1.62314197        1      -0.02885869      -0.01185334       0.00668644
In       1.77797351       2.68345256       3.28066919        2      -0.02885869       0.01185334      -0.00668644
In       1.33864109       5.83664820       4.07504755        3       0.02885869       0.01185334       0.00668644
In       4.89458811       2.68345256       4.07504755        4      -0.02885869       0.01185334       0.00668644
In       4.45525568       5.83664820       3.28066919        5       0.02885869       0.01185334      -0.00668644
In       4.45525568       3.62293872       1.62314197        6       0.02885869      -0.01185334       0.00668644
In       4.89458811       0.46974308       0.82876361        7      -0.02885869      -0.01185334      -0.00668644
O        3.08132718       4.30876225       4.17376030        8       0.01281113      -0.01952717       0.00167171
O        0.03528741       1.15556661       3.18195644        9      -0.01281113      -0.01952717      -0.00167171
O        0.03528741       1.99762903       1.72185472       10      -0.01281113       0.01952717       0.00167171
O        3.08132718       5.15082467       0.73005086       11       0.01281113       0.01952717      -0.00167171
O        3.15190201       1.99762903       0.73005086       12      -0.01281113       0.01952717      -0.00167171
O        6.19794178       5.15082467       1.72185472       13       0.01281113       0.01952717       0.00167171
O        6.19794178       4.30876225       3.18195644       14       0.01281113      -0.01952717      -0.00167171
O        3.15190201       1.15556661       4.17376030       15      -0.01281113      -0.01952717       0.00167171
O        5.77594632       4.72979346      -0.00000000       16       0.04045882      -0.00000000      -0.00000000
O        3.57389748       1.57659782       2.45190558       17      -0.04045882      -0.00000000       0.00000000
O        0.45728288       1.57659782       0.00000000       18      -0.04045882      -0.00000000      -0.00000000
O        2.65933172       4.72979346       2.45190558       19       0.04045882      -0.00000000      -0.00000000
20
Lattice="6.234751562989498 1.3632499638806014e-58 1.0989732266291052e-43 -3.0155054915675634e-59 6.300236020625789 -6.061526170374807e-15 -3.0333146063441845e-44 5.474703069207802e-15 4.907403574155966" Properties=species:S:1:pos:R:3:spacegroup_kinds:I:1:forces:R:3 spacegroup="P 1" unit_cell=conventional occupancy="_JSON {\"0\": {\"In\": 1}, \"1\": {\"In\": 1}, \"2\": {\"In\": 1}, \"3\": {\"In\": 1}, \"4\": {\"In\": 1}, \"5\": {\"In\": 1}, \"6\": {\"In\": 1}, \"7\": {\"In\": 1}, \"8\": {\"O\": 1}, \"9\": {\"O\": 1}, \"10\": {\"O\": 1}, \"11\": {\"O\": 1}, \"12\": {\"O\": 1}, \"13\": {\"O\": 1}, \"14\": {\"O\": 1}, \"15\": {\"O\": 1}, \"16\": {\"O\": 1}, \"17\": {\"O\": 1}, \"18\": {\"O\": 1}, \"19\": {\"O\": 1}}" n_minim_iter=6 energy=-22578.321233948216 stress="0.11076422176979714 3.440163889530263e-13 3.2784097398127073e-13 3.440163889530263e-13 0.11066149591262117 9.067674224503529e-13 3.2784097398127073e-13 9.067674224503529e-13 0.11080570534211445" free_energy=-22578.321233948216 pbc="T T T"
In       1.34179483       3.61833545       0.82839813        0       0.00344391       0.00147766       0.00708822
In       1.77558096       0.46821744       1.62530366        1      -0.00344391       0.00147766      -0.00708822
In       1.77558096       2.68190057       3.28209991        2      -0.00344391      -0.00147766       0.00708822
In       1.34179483       5.83201858       4.07900545        3       0.00344391      -0.00147766      -0.00708822
In       4.89295674       2.68190057       4.07900545        4      -0.00344391      -0.00147766      -0.00708822
In       4.45917061       5.83201858       3.28209991        5       0.00344391      -0.00147766       0.00708822
In       4.45917061       3.61833545       1.62530366        6       0.00344391       0.00147766      -0.00708822
In       4.89295674       0.46821744       0.82839813        7      -0.00344391       0.00147766       0.00708822
O        3.08284631       4.30323086       4.17821975        8       0.02433453       0.00111773      -0.01998633
O        0.03452947       1.15311285       3.18288561        9      -0.02433453       0.00111773       0.01998633
O        0.03452947       1.99700516       1.72451796       10      -0.02433453      -0.00111773      -0.01998633
O        3.08284631       5.14712317       0.72918383       11       0.02433453      -0.00111773       0.01998633
O        3.15190525       1.99700516       0.72918383       12      -0.02433453      -0.00111773       0.01998633
O        6.20022209       5.14712317       1.72451796       13       0.02433453      -0.00111773      -0.01998633
O        6.20022209       4.30323086       3.18288561       14       0.02433453       0.00111773       0.01998633
O        3.15190525       1.15311285       4.17821975       15      -0.02433453       0.00111773      -0.01998633
O        5.78106009       4.72517702      -0.00000000       16       0.00652034      -0.00000000       0.00000000
O        3.57106726       1.57505901       2.45370179       17      -0.00652034       0.00000000      -0.00000000
O        0.45369148       1.57505901       0.00000000       18      -0.00652034      -0.00000000       0.00000000
O        2.66368431       4.72517702       2.45370179       19       0.00652034       0.00000000       0.00000000
20
Lattice="6.235511387530789 1.1770362432011842e-58 9.155063210820206e-44 -3.2786558726041623e-59 6.3010580293663985 -6.0588728245893475e-15 -4.464534993269342e-44 5.476288517366109e-15 4.90616546479917" Properties=species:S:1:pos:R:3:spacegroup_kinds:I:1:forces:R:3 spacegroup="P 1" unit_cell=conventional occupancy="_JSON {\"0\": {\"In\": 1}, \"1\": {\"In\": 1}, \"2\": {\"In\": 1}, \"3\": {\"In\": 1}, \"4\": {\"In\": 1}, \"5\": {\"In\": 1}, \"6\": {\"In\": 1}, \"7\": {\"In\": 1}, \"8\": {\"O\": 1}, \"9\": {\"O\": 1}, \"10\": {\"O\": 1}, \"11\": {\"O\": 1}, \"12\": {\"O\": 1}, \"13\": {\"O\": 1}, \"14\": {\"O\": 1}, \"15\": {\"O\": 1}, \"16\": {\"O\": 1}, \"17\": {\"O\": 1}, \"18\": {\"O\": 1}, \"19\": {\"O\": 1}}" n_minim_iter=7 energy=-22578.32153985185 stress="0.11066680559540351 -2.3205986229521463e-13 -8.08762148754903e-13 -2.3205986229521463e-13 0.1107579284379632 -1.0793925461020624e-12 -8.08762148754903e-13 -1.0793925461020624e-12 0.11073742394696418" free_energy=-22578.32153985185 pbc="T T T"
In       1.34288607       3.61892638       0.82838824        0      -0.00094753      -0.00043710      -0.00025984
In       1.77486962       0.46839737       1.62469449        1       0.00094753      -0.00043710       0.00025984
In       1.77486962       2.68213165       3.28147097        2       0.00094753       0.00043710      -0.00025984
In       1.34288607       5.83266066       4.07777723        3      -0.00094753       0.00043710       0.00025984
In       4.89262531       2.68213165       4.07777723        4       0.00094753       0.00043710       0.00025984
In       4.46064177       5.83266066       3.28147097        5      -0.00094753       0.00043710      -0.00025984
In       4.46064177       3.61892638       1.62469449        6      -0.00094753      -0.00043710       0.00025984
In       4.89262531       0.46839737       0.82838824        7       0.00094753      -0.00043710      -0.00025984
O        3.08514419       4.30369029       4.17617593        8       0.00255652      -0.00065609       0.00255845
O        0.03261150       1.15316128       3.18307227        9      -0.00255652      -0.00065609      -0.00255845
O        0.03261150       1.99736774       1.72309320       10      -0.00255652       0.00065609       0.00255845
O        3.08514419       5.14789675       0.72998954       11       0.00255652       0.00065609      -0.00255845
O        3.15036720       1.99736774       0.72998954       12      -0.00255652       0.00065609      -0.00255845
O        6.20289989       5.14789675       1.72309320       13       0.00255652       0.00065609       0.00255845
O        6.20289989       4.30369029       3.18307227       14       0.00255652      -0.00065609      -0.00255845
O        3.15036720       1.15316128       4.17617593       15      -0.00255652      -0.00065609       0.00255845
O        5.78318566       4.72579352      -0.00000000       16      -0.00215291       0.00000000       0.00000000
O        3.57008142       1.57526451       2.45308273       17       0.00215291      -0.00000000       0.00000000
O        0.45232573       1.57526451       0.00000000       18       0.00215291      -0.00000000       0.00000000
O        2.66542996       4.72579352       2.45308273       19      -0.00215291      -0.00000000      -0.00000000
