20
Lattice="5.3773482007220395 3.7164895333391705e-59 2.0855171308806677e-44 -3.845603355094409e-59 5.597796447278219 -5.993891012170707e-17 -2.980364170749643e-44 8.228401434462247e-17 7.684643618491596" Properties=species:S:1:pos:R:3:spacegroup_kinds:I:1:forces:R:3 spacegroup="P 1" unit_cell=conventional occupancy="_JSON {\"0\": {\"In\": 1}, \"1\": {\"In\": 1}, \"2\": {\"In\": 1}, \"3\": {\"In\": 1}, \"4\": {\"In\": 1}, \"5\": {\"In\": 1}, \"6\": {\"In\": 1}, \"7\": {\"In\": 1}, \"8\": {\"O\": 1}, \"9\": {\"O\": 1}, \"10\": {\"O\": 1}, \"11\": {\"O\": 1}, \"12\": {\"O\": 1}, \"13\": {\"O\": 1}, \"14\": {\"O\": 1}, \"15\": {\"O\": 1}, \"16\": {\"O\": 1}, \"17\": {\"O\": 1}, \"18\": {\"O\": 1}, \"19\": {\"O\": 1}}" n_minim_iter=1 energy=-22574.31373642008 stress="-0.061199709534596636 1.5105166134213354e-13 -1.417022529403711e-13 1.5105166134213354e-13 -0.06415569529744287 2.1807751307210138e-13 -1.417022529403711e-13 2.1807751307210138e-13 -0.05821822202484129" free_energy=-22574.31373642008 pbc="T T T"
In       1.34044839       2.98035275       0.88034664        0       0.04851305       0.03269560       0.05428320
In       1.34822571       0.18145452       2.96197517        1      -0.04851305       0.03269560      -0.05428320
In       1.34822571       2.61744370       4.72266845        2      -0.04851305      -0.03269560       0.05428320
In       1.34044839       5.41634193       6.80429698        3       0.04851305      -0.03269560      -0.05428320
In       4.03689981       2.61744370       6.80429698        4      -0.04851305      -0.03269560      -0.05428320
In       4.02912249       5.41634193       4.72266845        5       0.04851305      -0.03269560       0.05428320
In       4.02912249       2.98035275       2.96197517        6       0.04851305       0.03269560      -0.05428320
In       4.03689981       0.18145452       0.88034664        7      -0.04851305       0.03269560       0.05428320
O        2.08863570       3.38592703       6.53185879        8      -0.05591141       0.00299675       0.03705384
O        0.60003840       0.58702881       4.99510663        9       0.05591141       0.00299675      -0.03705384
O        0.60003840       2.21186942       2.68953698       10       0.05591141      -0.00299675       0.03705384
O        2.08863570       5.01076764       1.15278483       11      -0.05591141      -0.00299675      -0.03705384
O        3.28871250       2.21186942       1.15278483       12       0.05591141      -0.00299675      -0.03705384
O        4.77730980       5.01076764       2.68953698       13      -0.05591141      -0.00299675       0.03705384
O        4.77730980       3.38592703       4.99510663       14      -0.05591141       0.00299675      -0.03705384
O        3.28871250       0.58702881       6.53185879       15       0.05591141       0.00299675       0.03705384
O        5.14193161       4.19834734       0.00000000       16       0.03134650       0.00000000      -0.00000000
O        2.92409069       1.39944911       3.84232181       17      -0.03134650       0.00000000       0.00000000
O        0.23541659       1.39944911       0.00000000       18      -0.03134650      -0.00000000       0.00000000
O        2.45325751       4.19834734       3.84232181       19       0.03134650       0.00000000      -0.00000000
20
Lattice="5.3774040891722 3.8877521283875975e-59 2.250877258215901e-44 -3.6698599197768715e-59 5.618122676821623 -7.432297411478945e-17 -2.1105728370610016e-44 6.26865127733862e-17 7.65676118795541" Properties=species:S:1:pos:R:3:spacegroup_kinds:I:1:forces:R:3 spacegroup="P 1" unit_cell=conventional occupancy="_JSON {\"0\": {\"In\": 1}, \"1\": {\"In\": 1}, \"2\": {\"In\": 1}, \"3\": {\"In\": 1}, \"4\": {\"In\": 1}, \"5\": {\"In\": 1}, \"6\": {\"In\": 1}, \"7\": {\"In\": 1}, \"8\": {\"O\": 1}, \"9\": {\"O\": 1}, \"10\": {\"O\": 1}, \"11\": {\"O\": 1}, \"12\": {\"O\": 1}, \"13\": {\"O\": 1}, \"14\": {\"O\": 1}, \"15\": {\"O\": 1}, \"16\": {\"O\": 1}, \"17\": {\"O\": 1}, \"18\": {\"O\": 1}, \"19\": {\"O\": 1}}" n_minim_iter=2 energy=-22574.316450917413 stress="-0.059122487298874996 -5.02250070144251e-13 5.890063188920804e-14 -5.02250070144251e-13 -0.06027061991682474 -7.286352860447416e-13 5.890063188920804e-14 -7.286352860447416e-13 -0.060754052492384004" free_energy=-22574.316450917413 pbc="T T T"
In       1.34071874       2.99134819       0.87743833        0       0.05541748       0.06790443       0.02473067
In       1.34798330       0.18228685       2.95094226        1      -0.05541748       0.06790443      -0.02473067
In       1.34798330       2.62677449       4.70581893        2      -0.05541748      -0.06790443       0.02473067
In       1.34071874       5.43583583       6.77932286        3       0.05541748      -0.06790443      -0.02473067
In       4.03668535       2.62677449       6.77932286        4      -0.05541748      -0.06790443      -0.02473067
In       4.02942079       5.43583583       4.70581893        5       0.05541748      -0.06790443       0.02473067
In       4.02942079       2.99134819       2.95094226        6       0.05541748       0.06790443      -0.02473067
In       4.03668535       0.18228685       0.87743833        7      -0.05541748       0.06790443       0.02473067
O        2.08836188       3.39823761       6.50835419        8      -0.04004854       0.02791860       0.04570870
O        0.60034016       0.58917627       4.97678759        9       0.04004854       0.02791860      -0.04570870
O        0.60034016       2.21988506       2.67997359       10       0.04004854      -0.02791860       0.04570870
O        2.08836188       5.02894640       1.14840700       11      -0.04004854      -0.02791860      -0.04570870
O        3.28904221       2.21988506       1.14840700       12       0.04004854      -0.02791860      -0.04570870
O        4.77706393       5.02894640       2.67997359       13      -0.04004854      -0.02791860       0.04570870
O        4.77706393       3.39823761       4.97678759       14      -0.04004854       0.02791860      -0.04570870
O        3.28904221       0.58917627       6.50835419       15       0.04004854       0.02791860       0.04570870
O        5.14215074       4.21359201       0.00000000       16       0.01955634       0.00000000       0.00000000
O        2.92395539       1.40453067       3.82838059       17      -0.01955634      -0.00000000      -0.00000000
O        0.23525335       1.40453067       0.00000000       18      -0.01955634       0.00000000      -0.00000000
O        2.45344870       4.21359201       3.82838059       19       0.01955634       0.00000000      -0.00000000
20
Lattice="5.360875873758439 3.878142212570753e-59 2.3918358346506577e-44 -3.68037589886219e-59 5.631695469301229 -7.437244465826773e-17 -1.9047277805463709e-44 6.283795678379444e-17 7.661857648932151" Properties=species:S:1:pos:R:3:spacegroup_kinds:I:1:forces:R:3 spacegroup="P 1" unit_cell=conventional occupancy="_JSON {\"0\": {\"In\": 1}, \"1\": {\"In\": 1}, \"2\": {\"In\": 1}, \"3\": {\"In\": 1}, \"4\": {\"In\": 1}, \"5\": {\"In\": 1}, \"6\": {\"In\": 1}, \"7\": {\"In\": 1}, \"8\": {\"O\": 1}, \"9\": {\"O\": 1}, \"10\": {\"O\": 1}, \"11\": {\"O\": 1}, \"12\": {\"O\": 1}, \"13\": {\"O\": 1}, \"14\": {\"O\": 1}, \"15\": {\"O\": 1}, \"16\": {\"O\": 1}, \"17\": {\"O\": 1}, \"18\": {\"O\": 1}, \"19\": {\"O\": 1}}" n_minim_iter=3 energy=-22574.3176180434 stress="-0.061255389849442 -4.010581771182079e-13 -2.9282443928916657e-13 -4.010581771182079e-13 -0.05882026745992661 9.775058028003623e-13 -2.9282443928916657e-13 9.775058028003623e-13 -0.05931295918198115" free_energy=-22574.3176180434 pbc="T T T"
In       1.33751079       2.99964165       0.87850804        0       0.00850847       0.07168553       0.02026965
In       1.34292714       0.18379391       2.95242079        1      -0.00850847       0.07168553      -0.02026965
In       1.34292714       2.63205382       4.70943686        2      -0.00850847      -0.07168553       0.02026965
In       1.33751079       5.44790156       6.78334961        3       0.00850847      -0.07168553      -0.02026965
In       4.02336508       2.63205382       6.78334961        4      -0.00850847      -0.07168553      -0.02026965
In       4.01794873       5.44790156       4.70943686        5       0.00850847      -0.07168553       0.02026965
In       4.01794873       2.99964165       2.95242079        6       0.00850847       0.07168553      -0.02026965
In       4.02336508       0.18379391       0.87850804        7      -0.00850847       0.07168553       0.02026965
O        2.08123245       3.40686028       6.51342973        8      -0.07230766       0.03189377       0.02237494
O        0.59920548       0.59101254       4.97935675        9       0.07230766       0.03189377      -0.02237494
O        0.59920548       2.22483519       2.68250090       10       0.07230766      -0.03189377       0.02237494
O        2.08123245       5.04068293       1.14842792       11      -0.07230766      -0.03189377      -0.02237494
O        3.27964342       2.22483519       1.14842792       12       0.07230766      -0.03189377      -0.02237494
O        4.76167039       5.04068293       2.68250090       13      -0.07230766      -0.03189377       0.02237494
O        4.76167039       3.40686028       4.97935675       14      -0.07230766       0.03189377      -0.02237494
O        3.27964342       0.59101254       6.51342973       15       0.07230766       0.03189377       0.02237494
O        5.12670244       4.22377160       0.00000000       16      -0.00420955       0.00000000       0.00000000
O        2.91461137       1.40792387       3.83092882       17       0.00420955       0.00000000      -0.00000000
O        0.23417344       1.40792387       0.00000000       18       0.00420955       0.00000000       0.00000000
O        2.44626450       4.22377160       3.83092882       19      -0.00420955      -0.00000000      -0.00000000
20
Lattice="5.363822292386996 3.871983071341766e-59 2.392852407121338e-44 -4.099987702554029e-59 5.631499665502596 -8.361199605035346e-17 -1.0686720147952309e-44 5.009919857169536e-17 7.657915140812724" Properties=species:S:1:pos:R:3:spacegroup_kinds:I:1:forces:R:3 spacegroup="P 1" unit_cell=conventional occupancy="_JSON {\"0\": {\"In\": 1}, \"1\": {\"In\": 1}, \"2\": {\"In\": 1}, \"3\": {\"In\": 1}, \"4\": {\"In\": 1}, \"5\": {\"In\": 1}, \"6\": {\"In\": 1}, \"7\": {\"In\": 1}, \"8\": {\"O\": 1}, \"9\": {\"O\": 1}, \"10\": {\"O\": 1}, \"11\": {\"O\": 1}, \"12\": {\"O\": 1}, \"13\": {\"O\": 1}, \"14\": {\"O\": 1}, \"15\": {\"O\": 1}, \"16\": {\"O\": 1}, \"17\": {\"O\": 1}, \"18\": {\"O\": 1}, \"19\": {\"O\": 1}}" n_minim_iter=4 energy=-22574.319789748195 stress="-0.05954255369939414 6.125823198796333e-13 -7.625312133665707e-13 6.125823198796333e-13 -0.05891608494052721 7.159999698726011e-13 -7.625312133665707e-13 7.159999698726011e-13 -0.05923816777188572" free_energy=-22574.319789748195 pbc="T T T"
In       1.33948437       3.00180034       0.87891263        0      -0.00869358       0.01689883       0.03569710
In       1.34242678       0.18605051       2.95004494        1       0.00869358       0.01689883      -0.03569710
In       1.34242678       2.62969932       4.70787020        2       0.00869358      -0.01689883       0.03569710
In       1.33948437       5.44544915       6.77900251        3      -0.00869358      -0.01689883      -0.03569710
In       4.02433792       2.62969932       6.77900251        4       0.00869358      -0.01689883      -0.03569710
In       4.02139552       5.44544915       4.70787020        5      -0.00869358      -0.01689883       0.03569710
In       4.02139552       3.00180034       2.95004494        6      -0.00869358       0.01689883      -0.03569710
In       4.02433792       0.18605051       0.87891263        7       0.00869358       0.01689883       0.03569710
O        2.08056781       3.40767373       6.51128516        8      -0.04266224       0.00279891      -0.00087623
O        0.60134333       0.59192390       4.97558755        9       0.04266224       0.00279891       0.00087623
O        0.60134333       2.22382593       2.68232759       10       0.04266224      -0.00279891      -0.00087623
O        2.08056781       5.03957577       1.14662998       11      -0.04266224      -0.00279891       0.00087623
O        3.28325448       2.22382593       1.14662998       12       0.04266224      -0.00279891       0.00087623
O        4.76247896       5.03957577       2.68232759       13      -0.04266224      -0.00279891      -0.00087623
O        4.76247896       3.40767373       4.97558755       14      -0.04266224       0.00279891       0.00087623
O        3.28325448       0.59192390       6.51128516       15       0.04266224       0.00279891      -0.00087623
O        5.12990506       4.22362475       0.00000000       16      -0.03942873      -0.00000000      -0.00000000
O        2.91582838       1.40787492       3.82895757       17       0.03942873      -0.00000000      -0.00000000
O        0.23391724       1.40787492       0.00000000       18       0.03942873       0.00000000      -0.00000000
O        2.44799391       4.22362475       3.82895757       19      -0.03942873       0.00000000      -0.00000000
20
Lattice="5.3630455792031 3.8780309732469843e-59 2.6846516608035876e-44 -3.9639685535964855e-59 5.6319575826843264 -8.476916213456574e-17 -1.902575523008412e-44 4.8521842681822626e-17 7.658401481059471" Properties=species:S:1:pos:R:3:spacegroup_kinds:I:1:forces:R:3 spacegroup="P 1" unit_cell=conventional occupancy="_JSON {\"0\": {\"In\": 1}, \"1\": {\"In\": 1}, \"2\": {\"In\": 1}, \"3\": {\"In\": 1}, \"4\": {\"In\": 1}, \"5\": {\"In\": 1}, \"6\": {\"In\": 1}, \"7\": {\"In\": 1}, \"8\": {\"O\": 1}, \"9\": {\"O\": 1}, \"10\": {\"O\": 1}, \"11\": {\"O\": 1}, \"12\": {\"O\": 1}, \"13\": {\"O\": 1}, \"14\": {\"O\": 1}, \"15\": {\"O\": 1}, \"16\": {\"O\": 1}, \"17\": {\"O\": 1}, \"18\": {\"O\": 1}, \"19\": {\"O\": 1}}" n_minim_iter=5 energy=-22574.32062295732 stress="-0.05876700457176251 -3.7222410688331955e-13 -7.519827810625695e-15 -3.7222410688331955e-13 -0.05895687193082548 -5.033641955667283e-13 -7.519827810625695e-15 -5.033641955667283e-13 -0.05897898706142697" free_energy=-22574.32062295732 pbc="T T T"
In       1.33990222       3.00349421       0.88019663        0      -0.01584932      -0.00953522       0.03191779
In       1.34162057       0.18751542       2.94900411        1       0.01584932      -0.00953522      -0.03191779
In       1.34162057       2.62846338       4.70939737        2       0.01584932       0.00953522       0.03191779
In       1.33990222       5.44444217       6.77820485        3      -0.01584932       0.00953522      -0.03191779
In       4.02314336       2.62846338       6.77820485        4       0.01584932       0.00953522      -0.03191779
In       4.02142501       5.44444217       4.70939737        5      -0.01584932       0.00953522       0.03191779
In       4.02142501       3.00349421       2.94900411        6      -0.01584932      -0.00953522      -0.03191779
In       4.02314336       0.18751542       0.88019663        7       0.01584932      -0.00953522       0.03191779
O        2.07856679       3.40843909       6.51236709        8      -0.02440313      -0.01383000      -0.00400237
O        0.60295600       0.59246030       4.97523513        9       0.02440313      -0.01383000       0.00400237
O        0.60295600       2.22351849       2.68316635       10       0.02440313       0.01383000      -0.00400237
O        2.07856679       5.03949728       1.14603439       11      -0.02440313       0.01383000       0.00400237
O        3.28447879       2.22351849       1.14603439       12       0.02440313       0.01383000       0.00400237
O        4.76008958       5.03949728       2.68316635       13      -0.02440313       0.01383000      -0.00400237
O        4.76008958       3.40843909       4.97523513       14      -0.02440313      -0.01383000       0.00400237
O        3.28447879       0.59246030       6.51236709       15       0.02440313      -0.01383000      -0.00400237
O        5.12862255       4.22396819       0.00000000       16      -0.05445062       0.00000000       0.00000000
O        2.91594582       1.40798940       3.82920074       17       0.05445062      -0.00000000      -0.00000000
O        0.23442303       1.40798940       0.00000000       18       0.05445062       0.00000000       0.00000000
O        2.44709976       4.22396819       3.82920074       19      -0.05445062       0.00000000      -0.00000000
20
Lattice="5.357376651389389 3.983320544235478e-59 1.516279158282924e-44 -3.946087461950262e-59 5.634807732113 -3.2098263339268493e-17 -1.0706710920560361e-44 1.2091332281103631e-16 7.6626274417709" Properties=species:S:1:pos:R:3:spacegroup_kinds:I:1:forces:R:3 spacegroup="P 1" unit_cell=conventional occupancy="_JSON {\"0\": {\"In\": 1}, \"1\": {\"In\": 1}, \"2\": {\"In\": 1}, \"3\": {\"In\": 1}, \"4\": {\"In\": 1}, \"5\": {\"In\": 1}, \"6\": {\"In\": 1}, \"7\": {\"In\": 1}, \"8\": {\"O\": 1}, \"9\": {\"O\": 1}, \"10\": {\"O\": 1}, \"11\": {\"O\": 1}, \"12\": {\"O\": 1}, \"13\": {\"O\": 1}, \"14\": {\"O\": 1}, \"15\": {\"O\": 1}, \"16\": {\"O\": 1}, \"17\": {\"O\": 1}, \"18\": {\"O\": 1}, \"19\": {\"O\": 1}}" n_minim_iter=6 energy=-22574.321628209727 stress="-0.05774114824408428 2.726603001242736e-13 2.762794223330253e-13 2.726603001242736e-13 -0.05868960266982162 9.42925947920379e-13 2.762794223330253e-13 9.42925947920379e-13 -0.05839900790021617" free_energy=-22574.321628209727 pbc="T T T"
In       1.33905614       3.00739399       0.88402280        0      -0.01624858      -0.03218288       0.00030832
In       1.33963218       0.18999013       2.94729092        1       0.01624858      -0.03218288      -0.00030832
In       1.33963218       2.62741374       4.71533652        2       0.01624858       0.03218288       0.00030832
In       1.33905614       5.44481760       6.77860464        3      -0.01624858       0.03218288      -0.00030832
In       4.01832051       2.62741374       6.77860464        4       0.01624858       0.03218288      -0.00030832
In       4.01774447       5.44481760       4.71533652        5      -0.01624858       0.03218288       0.00030832
In       4.01774447       3.00739399       2.94729092        6      -0.01624858      -0.03218288      -0.00030832
In       4.01832051       0.18999013       0.88402280        7       0.01624858      -0.03218288       0.00030832
O        2.07232825       3.41054310       6.51715932        8       0.00752742      -0.03503090       0.01185340
O        0.60636007       0.59313923       4.97678185        9      -0.00752742      -0.03503090      -0.01185340
O        0.60636007       2.22426464       2.68584560       10      -0.00752742       0.03503090       0.01185340
O        2.07232825       5.04166850       1.14546813       11       0.00752742       0.03503090      -0.01185340
O        3.28504840       2.22426464       1.14546813       12      -0.00752742       0.03503090      -0.01185340
O        4.75101658       5.04166850       2.68584560       13       0.00752742       0.03503090       0.01185340
O        4.75101658       3.41054310       4.97678185       14       0.00752742      -0.03503090      -0.01185340
O        3.28504840       0.59313923       6.51715932       15      -0.00752742      -0.03503090       0.01185340
O        5.12020454       4.22610580       0.00000000       16      -0.05992151       0.00000000       0.00000000
O        2.91586044       1.40870193       3.83131372       17       0.05992151       0.00000000      -0.00000000
O        0.23717212       1.40870193       0.00000000       18       0.05992151       0.00000000       0.00000000
O        2.44151621       4.22610580       3.83131372       19      -0.05992151       0.00000000      -0.00000000
20
Lattice="5.350047710169305 4.049517335235555e-59 3.2668088751654355e-44 -4.112130513517575e-59 5.638191898763331 -1.184222518883919e-16 9.769391247759572e-44 2.5282257059064074e-18 7.66851876962092" Properties=species:S:1:pos:R:3:spacegroup_kinds:I:1:forces:R:3 spacegroup="P 1" unit_cell=conventional occupancy="_JSON {\"0\": {\"In\": 1}, \"1\": {\"In\": 1}, \"2\": {\"In\": 1}, \"3\": {\"In\": 1}, \"4\": {\"In\": 1}, \"5\": {\"In\": 1}, \"6\": {\"In\": 1}, \"7\": {\"In\": 1}, \"8\": {\"O\": 1}, \"9\": {\"O\": 1}, \"10\": {\"O\": 1}, \"11\": {\"O\": 1}, \"12\": {\"O\": 1}, \"13\": {\"O\": 1}, \"14\": {\"O\": 1}, \"15\": {\"O\": 1}, \"16\": {\"O\": 1}, \"17\": {\"O\": 1}, \"18\": {\"O\": 1}, \"19\": {\"O\": 1}}" n_minim_iter=7 energy=-22574.322653851395 stress="-0.05850109556759573 -9.784517145127182e-13 2.277732088733573e-13 -9.784517145127182e-13 -0.05802786351318187 5.189234024218733e-13 2.277732088733573e-13 5.189234024218733e-13 -0.05825279347605983" free_energy=-22574.322653851395 pbc="T T T"
In       1.33608350       3.00854783       0.88608050        0       0.00592176       0.01915119      -0.02720102
In       1.33894036       0.18945188       2.94817888        1      -0.00592176       0.01915119       0.02720102
In       1.33894036       2.62964407       4.72033989        2      -0.00592176      -0.01915119      -0.02720102
In       1.33608350       5.44874002       6.78243827        3       0.00592176      -0.01915119       0.02720102
In       4.01396421       2.62964407       6.78243827        4      -0.00592176      -0.01915119       0.02720102
In       4.01110735       5.44874002       4.72033989        5       0.00592176      -0.01915119      -0.02720102
In       4.01110735       3.00854783       2.94817888        6       0.00592176       0.01915119       0.02720102
In       4.01396421       0.18945188       0.88608050        7      -0.00592176       0.01915119      -0.02720102
O        2.06792920       3.41105330       6.52286119        8      -0.00061577      -0.01345693       0.03543866
O        0.60709465       0.59195735       4.97991697        9       0.00061577      -0.01345693      -0.03543866
O        0.60709465       2.22713860       2.68860180       10       0.00061577       0.01345693       0.03543866
O        2.06792920       5.04623455       1.14565758       11      -0.00061577       0.01345693      -0.03543866
O        3.28211851       2.22713860       1.14565758       12       0.00061577       0.01345693      -0.03543866
O        4.74295306       5.04623455       2.68860180       13      -0.00061577       0.01345693       0.03543866
O        4.74295306       3.41105330       4.97991697       14      -0.00061577      -0.01345693      -0.03543866
O        3.28211851       0.59195735       6.52286119       15       0.00061577      -0.01345693       0.03543866
O        5.10867472       4.22864392       0.00000000       16      -0.01076617       0.00000000       0.00000000
O        2.91639685       1.40954797       3.83425938       17       0.01076617      -0.00000000      -0.00000000
O        0.24137299       1.40954797       0.00000000       18       0.01076617      -0.00000000       0.00000000
O        2.43365086       4.22864392       3.83425938       19      -0.01076617       0.00000000       0.00000000
20
Lattice="5.348020507088126 4.061053124299241e-59 3.595246069900369e-45 -4.274732058494946e-59 5.638270968366374 -1.0947737335517454e-16 8.110703853528642e-44 1.4860599095552402e-17 7.671317991129843" Properties=species:S:1:pos:R:3:spacegroup_kinds:I:1:forces:R:3 spacegroup="P 1" unit_cell=conventional occupancy="_JSON {\"0\": {\"In\": 1}, \"1\": {\"In\": 1}, \"2\": {\"In\": 1}, \"3\": {\"In\": 1}, \"4\": {\"In\": 1}, \"5\": {\"In\": 1}, \"6\": {\"In\": 1}, \"7\": {\"In\": 1}, \"8\": {\"O\": 1}, \"9\": {\"O\": 1}, \"10\": {\"O\": 1}, \"11\": {\"O\": 1}, \"12\": {\"O\": 1}, \"13\": {\"O\": 1}, \"14\": {\"O\": 1}, \"15\": {\"O\": 1}, \"16\": {\"O\": 1}, \"17\": {\"O\": 1}, \"18\": {\"O\": 1}, \"19\": {\"O\": 1}}" n_minim_iter=8 energy=-22574.323328814582 stress="-0.05800553121858385 9.831211256686002e-13 -1.2800551830698532e-13 9.831211256686002e-13 -0.05810229966709741 -3.477452494909637e-13 -1.2800551830698532e-13 -3.477452494909637e-13 -0.05779114432602278" free_energy=-22574.323328814582 pbc="T T T"
In       1.33562908       3.01000251       0.88678963        0      -0.00128788       0.00813265       0.00704946
In       1.33838117       0.19086702       2.94886937        1       0.00128788       0.00813265      -0.00704946
In       1.33838117       2.62826846       4.72244862        2       0.00128788      -0.00813265       0.00704946
In       1.33562908       5.44740394       6.78452836        3      -0.00128788      -0.00813265      -0.00704946
In       4.01239143       2.62826846       6.78452836        4       0.00128788      -0.00813265      -0.00704946
In       4.00963933       5.44740394       4.72244862        5      -0.00128788      -0.00813265       0.00704946
In       4.00963933       3.01000251       2.94886937        6      -0.00128788       0.00813265      -0.00704946
In       4.01239143       0.19086702       0.88678963        7       0.00128788       0.00813265       0.00704946
O        2.06498489       3.40938583       6.52826985        8       0.00443216      -0.01975039      -0.00544582
O        0.60902536       0.59025035       4.97870714        9      -0.00443216      -0.01975039       0.00544582
O        0.60902536       2.22888513       2.69261085       10      -0.00443216       0.01975039      -0.00544582
O        2.06498489       5.04802062       1.14304815       11       0.00443216       0.01975039       0.00544582
O        3.28303561       2.22888513       1.14304815       12      -0.00443216       0.01975039       0.00544582
O        4.73899515       5.04802062       2.69261085       13       0.00443216       0.01975039      -0.00544582
O        4.73899515       3.40938583       4.97870714       14       0.00443216      -0.01975039       0.00544582
O        3.28303561       0.59025035       6.52826985       15      -0.00443216      -0.01975039      -0.00544582
O        5.10246911       4.22870323       0.00000000       16       0.00920337       0.00000000      -0.00000000
O        2.91956165       1.40956774       3.83565900       17      -0.00920337      -0.00000000       0.00000000
O        0.24555139       1.40956774       0.00000000       18      -0.00920337      -0.00000000      -0.00000000
O        2.42845886       4.22870323       3.83565900       19       0.00920337      -0.00000000      -0.00000000
20
Lattice="5.348528157066228 4.154655148248563e-59 -1.5946252618849685e-45 -4.2671522877473485e-59 5.6416344436824195 -1.1274903652086405e-16 7.787156986572272e-44 1.0258415950275845e-17 7.66601676157561" Properties=species:S:1:pos:R:3:spacegroup_kinds:I:1:forces:R:3 spacegroup="P 1" unit_cell=conventional occupancy="_JSON {\"0\": {\"In\": 1}, \"1\": {\"In\": 1}, \"2\": {\"In\": 1}, \"3\": {\"In\": 1}, \"4\": {\"In\": 1}, \"5\": {\"In\": 1}, \"6\": {\"In\": 1}, \"7\": {\"In\": 1}, \"8\": {\"O\": 1}, \"9\": {\"O\": 1}, \"10\": {\"O\": 1}, \"11\": {\"O\": 1}, \"12\": {\"O\": 1}, \"13\": {\"O\": 1}, \"14\": {\"O\": 1}, \"15\": {\"O\": 1}, \"16\": {\"O\": 1}, \"17\": {\"O\": 1}, \"18\": {\"O\": 1}, \"19\": {\"O\": 1}}" n_minim_iter=9 energy=-22574.323510723854 stress="-0.05756351598980111 1.4988114603439792e-13 -3.391823835681835e-13 1.4988114603439792e-13 -0.05726607859410307 -6.292220429111236e-13 -3.391823835681835e-13 -6.292220429111236e-13 -0.05833371485628878" free_energy=-22574.323510723854 pbc="T T T"
In       1.33567710       3.01265997       0.88643257        0      -0.00041038       0.01239951       0.00488362
In       1.33858698       0.19184275       2.94657581        1       0.00041038       0.01239951      -0.00488362
In       1.33858698       2.62897447       4.71944095        2       0.00041038      -0.01239951       0.00488362
In       1.33567710       5.44979169       6.77958419        3      -0.00041038      -0.01239951      -0.00488362
In       4.01285106       2.62897447       6.77958419        4       0.00041038      -0.01239951      -0.00488362
In       4.00994117       5.44979169       4.71944095        5      -0.00041038      -0.01239951       0.00488362
In       4.00994117       3.01265997       2.94657581        6      -0.00041038       0.01239951      -0.00488362
In       4.01285106       0.19184275       0.88643257        7       0.00041038       0.01239951       0.00488362
O        2.06519973       3.40967364       6.52417186        8       0.00497448      -0.00662919      -0.00486238
O        0.60906435       0.58885642       4.97485329        9      -0.00497448      -0.00662919       0.00486238
O        0.60906435       2.23196081       2.69116348       10      -0.00497448       0.00662919      -0.00486238
O        2.06519973       5.05277803       1.14184491       11       0.00497448       0.00662919       0.00486238
O        3.28332843       2.23196081       1.14184491       12      -0.00497448       0.00662919       0.00486238
O        4.73946381       5.05277803       2.69116348       13       0.00497448       0.00662919      -0.00486238
O        4.73946381       3.40967364       4.97485329       14       0.00497448      -0.00662919       0.00486238
O        3.28332843       0.58885642       6.52417186       15      -0.00497448      -0.00662919      -0.00486238
O        5.10259937       4.23122583       0.00000000       16       0.00676461      -0.00000000      -0.00000000
O        2.92019286       1.41040861       3.83300838       17      -0.00676461       0.00000000      -0.00000000
O        0.24592878       1.41040861       0.00000000       18      -0.00676461       0.00000000      -0.00000000
O        2.42833529       4.23122583       3.83300838       19       0.00676461      -0.00000000       0.00000000
20