20
Lattice="5.781260730124882 2.4912396614849935e-61 3.1575572718305482e-43 1.7124209871007338e-62 5.827285273768121 -4.372843924895671e-18 -4.10817222703431e-43 7.825022372191291e-18 8.392093873886015" Properties=species:S:1:pos:R:3:spacegroup_kinds:I:1:forces:R:3 spacegroup="P 1" unit_cell=conventional occupancy="_JSON {\"0\": {\"In\": 1}, \"1\": {\"In\": 1}, \"2\": {\"In\": 1}, \"3\": {\"In\": 1}, \"4\": {\"In\": 1}, \"5\": {\"In\": 1}, \"6\": {\"In\": 1}, \"7\": {\"In\": 1}, \"8\": {\"O\": 1}, \"9\": {\"O\": 1}, \"10\": {\"O\": 1}, \"11\": {\"O\": 1}, \"12\": {\"O\": 1}, \"13\": {\"O\": 1}, \"14\": {\"O\": 1}, \"15\": {\"O\": 1}, \"16\": {\"O\": 1}, \"17\": {\"O\": 1}, \"18\": {\"O\": 1}, \"19\": {\"O\": 1}}" n_minim_iter=9 energy=-22574.309610681703 stress="0.0474143459734054 1.2289521396523734e-13 -1.678529063322461e-13 1.2289521396523734e-13 0.04746064513279412 -2.659751812600181e-13 -1.678529063322461e-13 -2.659751812600181e-13 0.0472799836876653" free_energy=-22574.309610681703 pbc="T T T"
In       1.42118806       3.07814727       0.97928255        0      -0.00099848      -0.00310397       0.00513103
In       1.46944230       0.16450464       3.21676438        1       0.00099848      -0.00310397      -0.00513103
In       1.46944230       2.74913800       5.17532949        2       0.00099848       0.00310397       0.00513103
In       1.42118806       5.66278064       7.41281132        3      -0.00099848       0.00310397      -0.00513103
In       4.36007267       2.74913800       7.41281132        4       0.00099848       0.00310397      -0.00513103
In       4.31181843       5.66278064       5.17532949        5      -0.00099848       0.00310397       0.00513103
In       4.31181843       3.07814727       3.21676438        6      -0.00099848      -0.00310397      -0.00513103
In       4.36007267       0.16450464       0.97928255        7       0.00099848      -0.00310397       0.00513103
O        2.25845324       3.48433736       7.12698508        8       0.00291887       0.00017370       0.00345752
O        0.63217712       0.57069472       5.46115573        9      -0.00291887       0.00017370      -0.00345752
O        0.63217712       2.34294792       2.93093814       10      -0.00291887      -0.00017370       0.00345752
O        2.25845324       5.25659056       1.26510879       11       0.00291887      -0.00017370      -0.00345752
O        3.52280749       2.34294792       1.26510879       12      -0.00291887      -0.00017370      -0.00345752
O        5.14908361       5.25659056       2.93093814       13       0.00291887      -0.00017370       0.00345752
O        5.14908361       3.48433736       5.46115573       14       0.00291887       0.00017370      -0.00345752
O        3.52280749       0.57069472       7.12698508       15      -0.00291887       0.00017370       0.00345752
O        5.51331188       4.37046396       0.00000000       16       0.00499542      -0.00000000      -0.00000000
O        3.15857921       1.45682132       4.19604694       17      -0.00499542       0.00000000      -0.00000000
O        0.26794885       1.45682132       0.00000000       18      -0.00499542       0.00000000       0.00000000
O        2.62268152       4.37046396       4.19604694       19       0.00499542      -0.00000000      -0.00000000
