20
Lattice="6.235511387530789 1.1770362432011842e-58 9.155063210820206e-44 -3.2786558726041623e-59 6.3010580293663985 -6.0588728245893475e-15 -4.464534993269342e-44 5.476288517366109e-15 4.90616546479917" Properties=species:S:1:pos:R:3:spacegroup_kinds:I:1:forces:R:3 spacegroup="P 1" unit_cell=conventional occupancy="_JSON {\"0\": {\"In\": 1}, \"1\": {\"In\": 1}, \"2\": {\"In\": 1}, \"3\": {\"In\": 1}, \"4\": {\"In\": 1}, \"5\": {\"In\": 1}, \"6\": {\"In\": 1}, \"7\": {\"In\": 1}, \"8\": {\"O\": 1}, \"9\": {\"O\": 1}, \"10\": {\"O\": 1}, \"11\": {\"O\": 1}, \"12\": {\"O\": 1}, \"13\": {\"O\": 1}, \"14\": {\"O\": 1}, \"15\": {\"O\": 1}, \"16\": {\"O\": 1}, \"17\": {\"O\": 1}, \"18\": {\"O\": 1}, \"19\": {\"O\": 1}}" n_minim_iter=7 energy=-22578.32153985185 stress="0.11066680559540351 -2.3205986229521463e-13 -8.08762148754903e-13 -2.3205986229521463e-13 0.1107579284379632 -1.0793925461020624e-12 -8.08762148754903e-13 -1.0793925461020624e-12 0.11073742394696418" free_energy=-22578.32153985185 pbc="T T T"
In       1.34288607       3.61892638       0.82838824        0      -0.00094753      -0.00043710      -0.00025984
In       1.77486962       0.46839737       1.62469449        1       0.00094753      -0.00043710       0.00025984
In       1.77486962       2.68213165       3.28147097        2       0.00094753       0.00043710      -0.00025984
In       1.34288607       5.83266066       4.07777723        3      -0.00094753       0.00043710       0.00025984
In       4.89262531       2.68213165       4.07777723        4       0.00094753       0.00043710       0.00025984
In       4.46064177       5.83266066       3.28147097        5      -0.00094753       0.00043710      -0.00025984
In       4.46064177       3.61892638       1.62469449        6      -0.00094753      -0.00043710       0.00025984
In       4.89262531       0.46839737       0.82838824        7       0.00094753      -0.00043710      -0.00025984
O        3.08514419       4.30369029       4.17617593        8       0.00255652      -0.00065609       0.00255845
O        0.03261150       1.15316128       3.18307227        9      -0.00255652      -0.00065609      -0.00255845
O        0.03261150       1.99736774       1.72309320       10      -0.00255652       0.00065609       0.00255845
O        3.08514419       5.14789675       0.72998954       11       0.00255652       0.00065609      -0.00255845
O        3.15036720       1.99736774       0.72998954       12      -0.00255652       0.00065609      -0.00255845
O        6.20289989       5.14789675       1.72309320       13       0.00255652       0.00065609       0.00255845
O        6.20289989       4.30369029       3.18307227       14       0.00255652      -0.00065609      -0.00255845
O        3.15036720       1.15316128       4.17617593       15      -0.00255652      -0.00065609       0.00255845
O        5.78318566       4.72579352      -0.00000000       16      -0.00215291       0.00000000       0.00000000
O        3.57008142       1.57526451       2.45308273       17       0.00215291      -0.00000000       0.00000000
O        0.45232573       1.57526451       0.00000000       18       0.00215291      -0.00000000       0.00000000
O        2.66542996       4.72579352       2.45308273       19      -0.00215291      -0.00000000      -0.00000000
