20
Lattice="5.82473048812995 2.2023397860422397e-61 2.8513737311442844e-43 4.599936828309921e-62 5.871101093967554 -5.474378397106674e-18 -4.139061899873623e-43 7.883859336096232e-18 8.455194693392864" Properties=species:S:1:pos:R:3:spacegroup_kinds:I:1:forces:R:3 spacegroup="P 1" unit_cell=conventional occupancy="_JSON {\"0\": {\"In\": 1}, \"1\": {\"In\": 1}, \"2\": {\"In\": 1}, \"3\": {\"In\": 1}, \"4\": {\"In\": 1}, \"5\": {\"In\": 1}, \"6\": {\"In\": 1}, \"7\": {\"In\": 1}, \"8\": {\"O\": 1}, \"9\": {\"O\": 1}, \"10\": {\"O\": 1}, \"11\": {\"O\": 1}, \"12\": {\"O\": 1}, \"13\": {\"O\": 1}, \"14\": {\"O\": 1}, \"15\": {\"O\": 1}, \"16\": {\"O\": 1}, \"17\": {\"O\": 1}, \"18\": {\"O\": 1}, \"19\": {\"O\": 1}}" n_minim_iter=1 energy=-22573.96746292985 stress="0.06193128948946666 -2.0554837324612577e-13 -1.0738906897233591e-14 -2.0554837324612577e-13 0.05983964955934827 -4.1131289833074387e-13 -1.0738906897233591e-14 -4.1131289833074387e-13 0.05642439083218738" free_energy=-22573.96746292985 pbc="T T T"
In       1.43187409       3.10129211       0.98664586        0      -0.02192566       0.02800448       0.00745394
In       1.48049115       0.16574156       3.24095149        1       0.02192566       0.02800448      -0.00745394
In       1.48049115       2.76980899       5.21424320        2       0.02192566      -0.02800448       0.00745394
In       1.43187409       5.70535953       7.46854884        3      -0.02192566      -0.02800448      -0.00745394
In       4.39285640       2.76980899       7.46854884        4       0.02192566      -0.02800448      -0.00745394
In       4.34423933       5.70535953       5.21424320        5      -0.02192566      -0.02800448       0.00745394
In       4.34423933       3.10129211       3.24095149        6      -0.02192566       0.02800448      -0.00745394
In       4.39285640       0.16574156       0.98664586        7       0.02192566       0.02800448       0.00745394
O        2.27543473       3.51053636       7.18057345        8       0.00099148      -0.04837441      -0.04135718
O        0.63693051       0.57498582       5.50221859        9      -0.00099148      -0.04837441       0.04135718
O        0.63693051       2.36056473       2.95297610       10      -0.00099148       0.04837441      -0.04135718
O        2.27543473       5.29611528       1.27462125       11       0.00099148       0.04837441       0.04135718
O        3.54929576       2.36056473       1.27462125       12      -0.00099148       0.04837441       0.04135718
O        5.18779998       5.29611528       2.95297610       13       0.00099148       0.04837441      -0.04135718
O        5.18779998       3.51053636       5.50221859       14       0.00099148      -0.04837441       0.04135718
O        3.54929576       0.57498582       7.18057345       15      -0.00099148      -0.04837441      -0.04135718
O        5.55476691       4.40332582       0.00000000       16      -0.02935857      -0.00000000       0.00000000
O        3.18232882       1.46777527       4.22759735       17       0.02935857      -0.00000000      -0.00000000
O        0.26996358       1.46777527       0.00000000       18       0.02935857      -0.00000000       0.00000000
O        2.64240167       4.40332582       4.22759735       19      -0.02935857      -0.00000000      -0.00000000
20
Lattice="5.804565726875391 1.819902789600059e-61 2.8385450255194592e-43 4.853453424281794e-62 5.8675554810281705 -6.287212220030528e-18 -4.160047025311465e-43 6.740674158189197e-18 8.48969460873534" Properties=species:S:1:pos:R:3:spacegroup_kinds:I:1:forces:R:3 spacegroup="P 1" unit_cell=conventional occupancy="_JSON {\"0\": {\"In\": 1}, \"1\": {\"In\": 1}, \"2\": {\"In\": 1}, \"3\": {\"In\": 1}, \"4\": {\"In\": 1}, \"5\": {\"In\": 1}, \"6\": {\"In\": 1}, \"7\": {\"In\": 1}, \"8\": {\"O\": 1}, \"9\": {\"O\": 1}, \"10\": {\"O\": 1}, \"11\": {\"O\": 1}, \"12\": {\"O\": 1}, \"13\": {\"O\": 1}, \"14\": {\"O\": 1}, \"15\": {\"O\": 1}, \"16\": {\"O\": 1}, \"17\": {\"O\": 1}, \"18\": {\"O\": 1}, \"19\": {\"O\": 1}}" n_minim_iter=2 energy=-22573.970676362776 stress="0.05782001906001502 -5.708518856668813e-13 7.314503552916593e-13 -5.708518856668813e-13 0.058715586413449365 3.1944244843707025e-13 7.314503552916593e-13 3.1944244843707025e-13 0.0580640530511543" free_energy=-22573.970676362776 pbc="T T T"
In       1.42681359       3.09955174       0.99070713        0      -0.03445654       0.02800786       0.01875690
In       1.47546927       0.16577400       3.25414017        1       0.03445654       0.02800786      -0.01875690
In       1.47546927       2.76800374       5.23555443        2       0.03445654      -0.02800786       0.01875690
In       1.42681359       5.70178149       7.49898748        3      -0.03445654      -0.02800786      -0.01875690
In       4.37775214       2.76800374       7.49898748        4       0.03445654      -0.02800786      -0.01875690
In       4.32909645       5.70178149       5.23555443        5      -0.03445654      -0.02800786       0.01875690
In       4.32909645       3.09955174       3.25414017        6      -0.03445654       0.02800786      -0.01875690
In       4.37775214       0.16577400       0.99070713        7       0.03445654       0.02800786       0.01875690
O        2.26756203       3.50818739       7.20967586        8      -0.01081216      -0.04819163      -0.06918563
O        0.63472083       0.57440965       5.52486605        9       0.01081216      -0.04819163       0.06918563
O        0.63472083       2.35936809       2.96482856       10       0.01081216       0.04819163      -0.06918563
O        2.26756203       5.29314583       1.28001875       11      -0.01081216       0.04819163       0.06918563
O        3.53700369       2.35936809       1.28001875       12       0.01081216       0.04819163       0.06918563
O        5.16984490       5.29314583       2.96482856       13      -0.01081216       0.04819163      -0.06918563
O        5.16984490       3.50818739       5.52486605       14      -0.01081216      -0.04819163       0.06918563
O        3.53700369       0.57440965       7.20967586       15       0.01081216      -0.04819163      -0.06918563
O        5.53539821       4.40066661       0.00000000       16      -0.03608579       0.00000000       0.00000000
O        3.17145038       1.46688887       4.24484730       17       0.03608579      -0.00000000       0.00000000
O        0.26916752       1.46688887       0.00000000       18       0.03608579      -0.00000000      -0.00000000
O        2.63311534       4.40066661       4.24484730       19      -0.03608579       0.00000000      -0.00000000
20
Lattice="5.809312147780946 1.8303796636547827e-61 2.8381780812718915e-43 5.165004437034284e-62 5.853963647288912 -6.317930149330753e-18 -4.170208474354931e-43 6.694429534251661e-18 8.502453631438453" Properties=species:S:1:pos:R:3:spacegroup_kinds:I:1:forces:R:3 spacegroup="P 1" unit_cell=conventional occupancy="_JSON {\"0\": {\"In\": 1}, \"1\": {\"In\": 1}, \"2\": {\"In\": 1}, \"3\": {\"In\": 1}, \"4\": {\"In\": 1}, \"5\": {\"In\": 1}, \"6\": {\"In\": 1}, \"7\": {\"In\": 1}, \"8\": {\"O\": 1}, \"9\": {\"O\": 1}, \"10\": {\"O\": 1}, \"11\": {\"O\": 1}, \"12\": {\"O\": 1}, \"13\": {\"O\": 1}, \"14\": {\"O\": 1}, \"15\": {\"O\": 1}, \"16\": {\"O\": 1}, \"17\": {\"O\": 1}, \"18\": {\"O\": 1}, \"19\": {\"O\": 1}}" n_minim_iter=3 energy=-22573.97146002826 stress="0.05860119778145139 -1.7769932937656777e-13 2.908478637534393e-13 -1.7769932937656777e-13 0.056650292733663205 7.683393409391716e-13 2.908478637534393e-13 7.683393409391716e-13 0.05866968294624752" free_energy=-22573.97146002826 pbc="T T T"
In       1.42745569       3.09281024       0.99248121        0      -0.02734591       0.01586865       0.02480388
In       1.47720039       0.16582842       3.25874561        1       0.02734591       0.01586865      -0.02480388
In       1.47720039       2.76115341       5.24370803        2       0.02734591      -0.01586865       0.02480388
In       1.42745569       5.68813523       7.50997242        3      -0.02734591      -0.01586865      -0.02480388
In       4.38185646       2.76115341       7.50997242        4       0.02734591      -0.01586865      -0.02480388
In       4.33211176       5.68813523       5.24370803        5      -0.02734591      -0.01586865       0.02480388
In       4.33211176       3.09281024       3.25874561        6      -0.02734591       0.01586865      -0.02480388
In       4.38185646       0.16582842       0.99248121        7       0.02734591       0.01586865       0.02480388
O        2.26926007       3.49930631       7.21944431        8      -0.01282121      -0.04626333      -0.06359747
O        0.63539600       0.57232449       5.53423614        9       0.01282121      -0.04626333       0.06359747
O        0.63539600       2.35465734       2.96821749       10       0.01282121       0.04626333      -0.06359747
O        2.26926007       5.28163916       1.28300933       11      -0.01282121       0.04626333       0.06359747
O        3.54005207       2.35465734       1.28300933       12       0.01282121       0.04626333       0.06359747
O        5.17391615       5.28163916       2.96821749       13      -0.01282121       0.04626333      -0.06359747
O        5.17391615       3.49930631       5.53423614       14      -0.01282121      -0.04626333       0.06359747
O        3.54005207       0.57232449       7.21944431       15       0.01282121      -0.04626333      -0.06359747
O        5.53936823       4.39047274       0.00000000       16      -0.02519828       0.00000000       0.00000000
O        3.17459999       1.46349091       4.25122682       17       0.02519828      -0.00000000       0.00000000
O        0.26994392       1.46349091       0.00000000       18       0.02519828      -0.00000000      -0.00000000
O        2.63471216       4.39047274       4.25122682       19      -0.02519828       0.00000000       0.00000000
20
Lattice="5.788334461242474 -3.474522073893571e-62 2.829948328004769e-43 -3.6946641241275504e-61 5.868970066708698 -2.3221482403963697e-18 -4.17174645936456e-43 1.2462623649265454e-17 8.51144885883248" Properties=species:S:1:pos:R:3:spacegroup_kinds:I:1:forces:R:3 spacegroup="P 1" unit_cell=conventional occupancy="_JSON {\"0\": {\"In\": 1}, \"1\": {\"In\": 1}, \"2\": {\"In\": 1}, \"3\": {\"In\": 1}, \"4\": {\"In\": 1}, \"5\": {\"In\": 1}, \"6\": {\"In\": 1}, \"7\": {\"In\": 1}, \"8\": {\"O\": 1}, \"9\": {\"O\": 1}, \"10\": {\"O\": 1}, \"11\": {\"O\": 1}, \"12\": {\"O\": 1}, \"13\": {\"O\": 1}, \"14\": {\"O\": 1}, \"15\": {\"O\": 1}, \"16\": {\"O\": 1}, \"17\": {\"O\": 1}, \"18\": {\"O\": 1}, \"19\": {\"O\": 1}}" n_minim_iter=4 energy=-22573.97776006038 stress="0.055302372044672116 -3.99962309413519e-13 3.2500127854238456e-14 -3.99962309413519e-13 0.0564938087548337 5.616734487527074e-13 3.2500127854238456e-14 5.616734487527074e-13 0.055870361061167904" free_energy=-22573.97776006038 pbc="T T T"
In       1.41722336       3.10466511       0.99681651        0       0.00620496       0.04230131       0.00777840
In       1.47694387       0.17018007       3.25890792        1      -0.00620496       0.04230131      -0.00777840
In       1.47694387       2.76430496       5.25254094        2      -0.00620496      -0.04230131       0.00777840
In       1.41722336       5.69878999       7.51463235        3       0.00620496      -0.04230131      -0.00777840
In       4.37111110       2.76430496       7.51463235        4      -0.00620496      -0.04230131      -0.00777840
In       4.31139059       5.69878999       5.25254094        5       0.00620496      -0.04230131       0.00777840
In       4.31139059       3.10466511       3.25890792        6       0.00620496       0.04230131      -0.00777840
In       4.37111110       0.17018007       0.99681651        7      -0.00620496       0.04230131       0.00777840
O        2.25932640       3.50057562       7.21625970        8       0.01447098      -0.01627114       0.01032451
O        0.63484083       0.56609059       5.55091358        9      -0.01447098      -0.01627114      -0.01032451
O        0.63484083       2.36839445       2.96053528       10      -0.01447098       0.01627114       0.01032451
O        2.25932640       5.30287948       1.29518915       11       0.01447098       0.01627114      -0.01032451
O        3.52900806       2.36839445       1.29518915       12      -0.01447098       0.01627114      -0.01032451
O        5.15349363       5.30287948       2.96053528       13       0.01447098       0.01627114       0.01032451
O        5.15349363       3.50057562       5.55091358       14       0.01447098      -0.01627114      -0.01032451
O        3.52900806       0.56609059       7.21625970       15      -0.01447098      -0.01627114       0.01032451
O        5.51416584       4.40172755       0.00000000       16       0.01577717       0.00000000       0.00000000
O        3.16833585       1.46724252       4.25572443       17      -0.01577717      -0.00000000       0.00000000
O        0.27416862       1.46724252       0.00000000       18      -0.01577717      -0.00000000       0.00000000
O        2.61999861       4.40172755       4.25572443       19       0.01577717       0.00000000       0.00000000
20
Lattice="5.794325128101121 -1.1868769358633746e-61 2.8386896719792312e-43 -3.693641005518826e-61 5.86115583239069 -4.0943500535905315e-18 -4.126021441969069e-43 9.897545439478024e-18 8.513984934740778" Properties=species:S:1:pos:R:3:spacegroup_kinds:I:1:forces:R:3 spacegroup="P 1" unit_cell=conventional occupancy="_JSON {\"0\": {\"In\": 1}, \"1\": {\"In\": 1}, \"2\": {\"In\": 1}, \"3\": {\"In\": 1}, \"4\": {\"In\": 1}, \"5\": {\"In\": 1}, \"6\": {\"In\": 1}, \"7\": {\"In\": 1}, \"8\": {\"O\": 1}, \"9\": {\"O\": 1}, \"10\": {\"O\": 1}, \"11\": {\"O\": 1}, \"12\": {\"O\": 1}, \"13\": {\"O\": 1}, \"14\": {\"O\": 1}, \"15\": {\"O\": 1}, \"16\": {\"O\": 1}, \"17\": {\"O\": 1}, \"18\": {\"O\": 1}, \"19\": {\"O\": 1}}" n_minim_iter=5 energy=-22573.978326591772 stress="0.05634900760615405 6.528297532807844e-13 1.1917399423011437e-13 6.528297532807844e-13 0.05512183512969515 5.521050500894914e-13 1.1917399423011437e-13 5.521050500894914e-13 0.05577532261250809" free_energy=-22573.978326591772 pbc="T T T"
In       1.41828916       3.10222485       0.99779334        0       0.00982438       0.02974243       0.00769312
In       1.47887340       0.17164693       3.25919912        1      -0.00982438       0.02974243      -0.00769312
In       1.47887340       2.75893098       5.25478581        2      -0.00982438      -0.02974243       0.00769312
In       1.41828916       5.68950890       7.51619159        3       0.00982438      -0.02974243      -0.00769312
In       4.37603597       2.75893098       7.51619159        4      -0.00982438      -0.02974243      -0.00769312
In       4.31545172       5.68950890       5.25478581        5       0.00982438      -0.02974243       0.00769312
In       4.31545172       3.10222485       3.25919912        6       0.00982438       0.02974243      -0.00769312
In       4.37603597       0.17164693       0.99779334        7      -0.00982438       0.02974243       0.00769312
O        2.26187921       3.49444709       7.21741894        8       0.01457014      -0.01379516       0.02098636
O        0.63528336       0.56386917       5.55355846        9      -0.01457014      -0.01379516      -0.02098636
O        0.63528336       2.36670874       2.96042647       10      -0.01457014       0.01379516       0.02098636
O        2.26187921       5.29728666       1.29656600       11       0.01457014       0.01379516      -0.02098636
O        3.53244592       2.36670874       1.29656600       12      -0.01457014       0.01379516      -0.02098636
O        5.15904177       5.29728666       2.96042647       13       0.01457014       0.01379516       0.02098636
O        5.15904177       3.49444709       5.55355846       14       0.01457014      -0.01379516      -0.02098636
O        3.53244592       0.56386917       7.21741894       15      -0.01457014      -0.01379516       0.02098636
O        5.51975403       4.39586687       0.00000000       16       0.02138089      -0.00000000      -0.00000000
O        3.17173366       1.46528896       4.25699247       17      -0.02138089      -0.00000000      -0.00000000
O        0.27457110       1.46528896       0.00000000       18      -0.02138089       0.00000000      -0.00000000
O        2.62259146       4.39586687       4.25699247       19       0.02138089      -0.00000000       0.00000000
20
Lattice="5.790135228839448 1.1053302393410721e-60 2.578871248552731e-43 1.4903410136517506e-60 5.867099136660537 -1.6956958983152794e-17 -4.114126844681586e-43 -8.634718313448483e-18 8.511515075440476" Properties=species:S:1:pos:R:3:spacegroup_kinds:I:1:forces:R:3 spacegroup="P 1" unit_cell=conventional occupancy="_JSON {\"0\": {\"In\": 1}, \"1\": {\"In\": 1}, \"2\": {\"In\": 1}, \"3\": {\"In\": 1}, \"4\": {\"In\": 1}, \"5\": {\"In\": 1}, \"6\": {\"In\": 1}, \"7\": {\"In\": 1}, \"8\": {\"O\": 1}, \"9\": {\"O\": 1}, \"10\": {\"O\": 1}, \"11\": {\"O\": 1}, \"12\": {\"O\": 1}, \"13\": {\"O\": 1}, \"14\": {\"O\": 1}, \"15\": {\"O\": 1}, \"16\": {\"O\": 1}, \"17\": {\"O\": 1}, \"18\": {\"O\": 1}, \"19\": {\"O\": 1}}" n_minim_iter=6 energy=-22573.980167796235 stress="0.05553236589514664 -2.5886246834206537e-14 -4.850818899562701e-13 -2.5886246834206537e-14 0.05505887741201416 -4.5337775977335725e-14 -4.850818899562701e-13 -4.5337775977335725e-14 0.055186163060987496" free_energy=-22573.980167796235 pbc="T T T"
In       1.41735511       3.11117752       0.99925632        0      -0.00921276       0.01153321       0.00209809
In       1.47771251       0.17762795       3.25650122        1       0.00921276       0.01153321      -0.00209809
In       1.47771251       2.75592162       5.25501386        2       0.00921276      -0.01153321       0.00209809
In       1.41735511       5.68947118       7.51225875        3      -0.00921276      -0.01153321      -0.00209809
In       4.37278012       2.75592162       7.51225875        4       0.00921276      -0.01153321      -0.00209809
In       4.31242272       5.68947118       5.25501386        5      -0.00921276      -0.01153321       0.00209809
In       4.31242272       3.11117752       3.25650122        6      -0.00921276       0.01153321      -0.00209809
In       4.37278012       0.17762795       0.99925632        7       0.00921276       0.01153321       0.00209809
O        2.26190168       3.49436168       7.21538961        8       0.00723780      -0.01057955       0.02062492
O        0.63316593       0.56081211       5.55188300        9      -0.00723780      -0.01057955      -0.02062492
O        0.63316593       2.37273746       2.95963207       10      -0.00723780       0.01057955       0.02062492
O        2.26190168       5.30628703       1.29612546       11       0.00723780       0.01057955      -0.02062492
O        3.52823355       2.37273746       1.29612546       12      -0.00723780       0.01057955      -0.02062492
O        5.15696929       5.30628703       2.95963207       13       0.00723780       0.01057955       0.02062492
O        5.15696929       3.49436168       5.55188300       14       0.00723780      -0.01057955      -0.02062492
O        3.52823355       0.56081211       7.21538961       15      -0.00723780      -0.01057955       0.02062492
O        5.51729528       4.40032435       0.00000000       16       0.00220065      -0.00000000       0.00000000
O        3.16790756       1.46677478       4.25575754       17      -0.00220065      -0.00000000      -0.00000000
O        0.27283994       1.46677478       0.00000000       18      -0.00220065       0.00000000       0.00000000
O        2.62222767       4.40032435       4.25575754       19       0.00220065      -0.00000000      -0.00000000
20
Lattice="5.786604319639678 1.109493068435272e-60 2.369025101720749e-43 1.3677691383232372e-60 5.871007075432667 -1.6913983502873012e-17 -3.49225089372491e-43 -8.579943032525813e-18 8.51103968273921" Properties=species:S:1:pos:R:3:spacegroup_kinds:I:1:forces:R:3 spacegroup="P 1" unit_cell=conventional occupancy="_JSON {\"0\": {\"In\": 1}, \"1\": {\"In\": 1}, \"2\": {\"In\": 1}, \"3\": {\"In\": 1}, \"4\": {\"In\": 1}, \"5\": {\"In\": 1}, \"6\": {\"In\": 1}, \"7\": {\"In\": 1}, \"8\": {\"O\": 1}, \"9\": {\"O\": 1}, \"10\": {\"O\": 1}, \"11\": {\"O\": 1}, \"12\": {\"O\": 1}, \"13\": {\"O\": 1}, \"14\": {\"O\": 1}, \"15\": {\"O\": 1}, \"16\": {\"O\": 1}, \"17\": {\"O\": 1}, \"18\": {\"O\": 1}, \"19\": {\"O\": 1}}" n_minim_iter=7 energy=-22573.98068214112 stress="0.05487806447037491 2.903569431467699e-14 1.7409902509366296e-13 2.903569431467699e-14 0.05502419050831246 1.8545798962771217e-13 1.7409902509366296e-13 1.8545798962771217e-13 0.05486816589237222" free_energy=-22573.98068214112 pbc="T T T"
In       1.41626462       3.11793201       1.00058829        0      -0.02167893      -0.00369857      -0.00009305
In       1.47703754       0.18242847       3.25493155        1       0.02167893      -0.00369857       0.00009305
In       1.47703754       2.75307506       5.25610813        2       0.02167893       0.00369857      -0.00009305
In       1.41626462       5.68857860       7.51045139        3      -0.02167893       0.00369857       0.00009305
In       4.37033970       2.75307506       7.51045139        4       0.02167893       0.00369857       0.00009305
In       4.30956678       5.68857860       5.25610813        5      -0.02167893       0.00369857      -0.00009305
In       4.30956678       3.11793201       3.25493155        6      -0.02167893      -0.00369857       0.00009305
In       4.37033970       0.18242847       1.00058829        7       0.02167893      -0.00369857      -0.00009305
O        2.26190559       3.49365587       7.21539666        8       0.00073520      -0.00698022       0.01786227
O        0.63139657       0.55815234       5.55116286        9      -0.00073520      -0.00698022      -0.01786227
O        0.63139657       2.37735120       2.95987682       10      -0.00073520       0.00698022       0.01786227
O        2.26190559       5.31285474       1.29564302       11       0.00073520       0.00698022      -0.01786227
O        3.52469873       2.37735120       1.29564302       12      -0.00073520       0.00698022      -0.01786227
O        5.15520775       5.31285474       2.95987682       13       0.00073520       0.00698022       0.01786227
O        5.15520775       3.49365587       5.55116286       14       0.00073520      -0.00698022      -0.01786227
O        3.52469873       0.55815234       7.21539666       15      -0.00073520      -0.00698022       0.01786227
O        5.51504586       4.40325531       0.00000000       16      -0.01017276       0.00000000      -0.00000000
O        3.16486061       1.46775177       4.25551984       17       0.01017276       0.00000000       0.00000000
O        0.27155845       1.46775177       0.00000000       18       0.01017276       0.00000000      -0.00000000
O        2.62174371       4.40325531       4.25551984       19      -0.01017276       0.00000000       0.00000000
20
Lattice="5.786625990964267 1.1159865269749236e-60 2.1623136456299473e-43 1.3275995720065383e-60 5.870209554451433 -1.671692270268134e-17 -3.292389630764993e-43 -8.291764737002724e-18 8.51216410556499" Properties=species:S:1:pos:R:3:spacegroup_kinds:I:1:forces:R:3 spacegroup="P 1" unit_cell=conventional occupancy="_JSON {\"0\": {\"In\": 1}, \"1\": {\"In\": 1}, \"2\": {\"In\": 1}, \"3\": {\"In\": 1}, \"4\": {\"In\": 1}, \"5\": {\"In\": 1}, \"6\": {\"In\": 1}, \"7\": {\"In\": 1}, \"8\": {\"O\": 1}, \"9\": {\"O\": 1}, \"10\": {\"O\": 1}, \"11\": {\"O\": 1}, \"12\": {\"O\": 1}, \"13\": {\"O\": 1}, \"14\": {\"O\": 1}, \"15\": {\"O\": 1}, \"16\": {\"O\": 1}, \"17\": {\"O\": 1}, \"18\": {\"O\": 1}, \"19\": {\"O\": 1}}" n_minim_iter=8 energy=-22573.981019656912 stress="0.054774348523061754 -1.6238326988634243e-13 -3.294216852179127e-13 -1.6238326988634243e-13 0.05459847017279729 -2.5374686759923204e-13 -3.294216852179127e-13 -2.5374686759923204e-13 0.05507437850792223" free_energy=-22573.981019656912 pbc="T T T"
In       1.41494661       3.11972041       1.00133166        0      -0.01813068      -0.01153817       0.00648456
In       1.47836638       0.18461564       3.25475040        1       0.01813068      -0.01153817      -0.00648456
In       1.47836638       2.75048914       5.25741371        2       0.01813068       0.01153817       0.00648456
In       1.41494661       5.68559392       7.51083245        3      -0.01813068       0.01153817      -0.00648456
In       4.37167938       2.75048914       7.51083245        4       0.01813068       0.01153817      -0.00648456
In       4.30825961       5.68559392       5.25741371        5      -0.01813068       0.01153817       0.00648456
In       4.30825961       3.11972041       3.25475040        6      -0.01813068      -0.01153817      -0.00648456
In       4.37167938       0.18461564       1.00133166        7       0.01813068      -0.01153817       0.00648456
O        2.26292138       3.49141399       7.21875348        8      -0.00622154      -0.00633323       0.00242440
O        0.63039162       0.55630921       5.54949268        9       0.00622154      -0.00633323      -0.00242440
O        0.63039162       2.37879556       2.96267143       10       0.00622154       0.00633323       0.00242440
O        2.26292138       5.31390034       1.29341062       11      -0.00622154       0.00633323      -0.00242440
O        3.52370462       2.37879556       1.29341062       12       0.00622154       0.00633323      -0.00242440
O        5.15623437       5.31390034       2.96267143       13      -0.00622154       0.00633323       0.00242440
O        5.15623437       3.49141399       5.54949268       14      -0.00622154      -0.00633323      -0.00242440
O        3.52370462       0.55630921       7.21875348       15       0.00622154      -0.00633323       0.00242440
O        5.51541780       4.40265717       0.00000000       16      -0.01197472       0.00000000       0.00000000
O        3.16452118       1.46755239       4.25608205       17       0.01197472      -0.00000000      -0.00000000
O        0.27120819       1.46755239       0.00000000       18       0.01197472       0.00000000       0.00000000
O        2.62210481       4.40265717       4.25608205       19      -0.01197472      -0.00000000      -0.00000000
20
Lattice="5.786337448177625 1.1193511885415677e-60 2.165809807796015e-43 1.341582444823874e-60 5.871288546239503 -1.663143848759852e-17 -3.363709052532423e-43 -8.173403792638509e-18 8.51102418024594" Properties=species:S:1:pos:R:3:spacegroup_kinds:I:1:forces:R:3 spacegroup="P 1" unit_cell=conventional occupancy="_JSON {\"0\": {\"In\": 1}, \"1\": {\"In\": 1}, \"2\": {\"In\": 1}, \"3\": {\"In\": 1}, \"4\": {\"In\": 1}, \"5\": {\"In\": 1}, \"6\": {\"In\": 1}, \"7\": {\"In\": 1}, \"8\": {\"O\": 1}, \"9\": {\"O\": 1}, \"10\": {\"O\": 1}, \"11\": {\"O\": 1}, \"12\": {\"O\": 1}, \"13\": {\"O\": 1}, \"14\": {\"O\": 1}, \"15\": {\"O\": 1}, \"16\": {\"O\": 1}, \"17\": {\"O\": 1}, \"18\": {\"O\": 1}, \"19\": {\"O\": 1}}" n_minim_iter=9 energy=-22573.981244088172 stress="0.054730756812695354 -7.969800362269414e-14 3.2876902551527517e-13 -7.969800362269414e-14 0.05466454247436734 -4.0144500725351005e-13 3.2876902551527517e-13 -4.0144500725351005e-13 0.05491639952527949" free_energy=-22573.981244088172 pbc="T T T"
In       1.41351535       3.12040184       1.00148807        0      -0.00692814      -0.00713450       0.00746016
In       1.47965337       0.18475757       3.25402402        1       0.00692814      -0.00713450      -0.00746016
In       1.47965337       2.75088670       5.25700016        2       0.00692814       0.00713450       0.00746016
In       1.41351535       5.68653098       7.50953611        3      -0.00692814       0.00713450      -0.00746016
In       4.37282210       2.75088670       7.50953611        4       0.00692814       0.00713450      -0.00746016
In       4.30668407       5.68653098       5.25700016        5      -0.00692814       0.00713450       0.00746016
In       4.30668407       3.12040184       3.25402402        6      -0.00692814      -0.00713450      -0.00746016
In       4.37282210       0.18475757       1.00148807        7       0.00692814      -0.00713450       0.00746016
O        2.26280213       3.49121071       7.21835498        8      -0.00454075      -0.00324587       0.00197411
O        0.63036659       0.55556644       5.54818129        9       0.00454075      -0.00324587      -0.00197411
O        0.63036659       2.38007783       2.96284289       10       0.00454075       0.00324587       0.00197411
O        2.26280213       5.31572211       1.29266920       11      -0.00454075       0.00324587      -0.00197411
O        3.52353532       2.38007783       1.29266920       12       0.00454075       0.00324587      -0.00197411
O        5.15597086       5.31572211       2.96284289       13      -0.00454075       0.00324587       0.00197411
O        5.15597086       3.49121071       5.54818129       14      -0.00454075      -0.00324587      -0.00197411
O        3.52353532       0.55556644       7.21835498       15       0.00454075      -0.00324587       0.00197411
O        5.51446400       4.40346641       0.00000000       16      -0.00506680       0.00000000       0.00000000
O        3.16504217       1.46782214       4.25551209       17       0.00506680       0.00000000       0.00000000
O        0.27187345       1.46782214       0.00000000       18       0.00506680      -0.00000000       0.00000000
O        2.62129528       4.40346641       4.25551209       19      -0.00506680      -0.00000000      -0.00000000
20