20
Lattice="5.692640977763391 1.4076914984393353e-61 1.3544623620898265e-43 -2.5309989478616904e-62 5.757432107587648 5.600150797492962e-18 -4.750450490241679e-44 5.765694858982259e-18 8.234043605978004" Properties=species:S:1:pos:R:3:spacegroup_kinds:I:1:forces:R:3 spacegroup="P 1" unit_cell=conventional occupancy="_JSON {\"0\": {\"In\": 1}, \"1\": {\"In\": 1}, \"2\": {\"In\": 1}, \"3\": {\"In\": 1}, \"4\": {\"In\": 1}, \"5\": {\"In\": 1}, \"6\": {\"In\": 1}, \"7\": {\"In\": 1}, \"8\": {\"O\": 1}, \"9\": {\"O\": 1}, \"10\": {\"O\": 1}, \"11\": {\"O\": 1}, \"12\": {\"O\": 1}, \"13\": {\"O\": 1}, \"14\": {\"O\": 1}, \"15\": {\"O\": 1}, \"16\": {\"O\": 1}, \"17\": {\"O\": 1}, \"18\": {\"O\": 1}, \"19\": {\"O\": 1}}" n_minim_iter=6 energy=-22574.920452024788 stress="0.012979666832772492 -8.433364535202397e-14 -1.3790293574907513e-13 -8.433364535202397e-14 0.012981935169161041 2.4269084010654126e-13 -1.3790293574907513e-13 2.4269084010654126e-13 0.012969986736463277" free_energy=-22574.920452024788 pbc="T T T"
In       1.41017177       3.03414204       0.94722265        0      -0.00275161      -0.00064992      -0.00165918
In       1.43614872       0.15542598       3.16979916        1       0.00275161      -0.00064992       0.00165918
In       1.43614872       2.72329007       5.06424445        2       0.00275161       0.00064993      -0.00165918
In       1.41017177       5.60200613       7.28682096        3      -0.00275161       0.00064993       0.00165918
In       4.28246921       2.72329007       7.28682096        4       0.00275161       0.00064992       0.00165918
In       4.25649226       5.60200613       5.06424445        5      -0.00275161       0.00064992      -0.00165918
In       4.25649226       3.03414204       3.16979916        6      -0.00275161      -0.00064993       0.00165918
In       4.28246921       0.15542598       0.94722265        7       0.00275161      -0.00064993      -0.00165918
O        2.22223948       3.47428522       6.99414934        8      -0.00338160      -0.00085174      -0.00331866
O        0.62408101       0.59556917       5.35691607        9       0.00338160      -0.00085174       0.00331866
O        0.62408101       2.28314688       2.87712753       10       0.00338160       0.00085174      -0.00331866
O        2.22223948       5.16186294       1.23989427       11      -0.00338160       0.00085174       0.00331866
O        3.47040150       2.28314688       1.23989427       12       0.00338160       0.00085174       0.00331866
O        5.06855997       5.16186294       2.87712753       13      -0.00338160       0.00085174      -0.00331866
O        5.06855997       3.47428522       5.35691607       14      -0.00338160      -0.00085174       0.00331866
O        3.47040150       0.59556917       6.99414934       15       0.00338160      -0.00085175      -0.00331866
O        5.45464680       4.31807408       0.00000000       16       0.00503562       0.00000000      -0.00000000
O        3.08431466       1.43935803       4.11702180       17      -0.00503562       0.00000000       0.00000000
O        0.23799417       1.43935803       0.00000000       18      -0.00503562       0.00000000      -0.00000000
O        2.60832632       4.31807408       4.11702180       19       0.00503562       0.00000000       0.00000000
