20
Lattice="5.772266140914649 -1.5933212868558285e-59 1.541969503172069e-43 1.5883811888581667e-59 5.969655766001264 6.524560746232849e-18 2.668148732318397e-43 -6.60390229920344e-17 9.137069678100698" Properties=species:S:1:pos:R:3:spacegroup_kinds:I:1:forces:R:3 spacegroup="P 1" unit_cell=conventional occupancy="_JSON {\"0\": {\"In\": 1}, \"1\": {\"In\": 1}, \"2\": {\"In\": 1}, \"3\": {\"In\": 1}, \"4\": {\"In\": 1}, \"5\": {\"In\": 1}, \"6\": {\"In\": 1}, \"7\": {\"In\": 1}, \"8\": {\"O\": 1}, \"9\": {\"O\": 1}, \"10\": {\"O\": 1}, \"11\": {\"O\": 1}, \"12\": {\"O\": 1}, \"13\": {\"O\": 1}, \"14\": {\"O\": 1}, \"15\": {\"O\": 1}, \"16\": {\"O\": 1}, \"17\": {\"O\": 1}, \"18\": {\"O\": 1}, \"19\": {\"O\": 1}}" n_minim_iter=7 energy=-22572.764899170463 stress="0.07938823433944235 -3.756503334714816e-14 -1.4699891213672376e-13 -3.756503334714816e-14 0.0795623288133119 -1.109687427667166e-12 -1.4699891213672376e-13 -1.109687427667166e-12 0.07943983948035377" free_energy=-22572.764899170463 pbc="T T T"
In       1.37390661       3.22348339       1.12810587        0      -0.00201287      -0.00164664       0.00127502
In       1.51222646       0.23865551       3.44042897        1       0.00201287      -0.00164664      -0.00127502
In       1.51222646       2.74617238       5.69664071        2       0.00201287       0.00164664       0.00127502
In       1.37390661       5.73100026       8.00896381        3      -0.00201287       0.00164664      -0.00127502
In       4.39835953       2.74617238       8.00896381        4       0.00201287       0.00164664      -0.00127502
In       4.26003968       5.73100026       5.69664071        5      -0.00201287       0.00164664       0.00127502
In       4.26003968       3.22348339       3.44042897        6      -0.00201287      -0.00164664      -0.00127502
In       4.39835953       0.23865551       1.12810587        7       0.00201287      -0.00164664       0.00127502
O        2.26258432       3.53380434       7.70474626        8       0.00180594      -0.00627997       0.00024142
O        0.62354875       0.54897646       6.00085826        9      -0.00180594      -0.00627997      -0.00024142
O        0.62354875       2.43585143       3.13621142       10      -0.00180594       0.00627997       0.00024142
O        2.26258432       5.42067931       1.43232342       11       0.00180594       0.00627997      -0.00024142
O        3.50968182       2.43585143       1.43232342       12      -0.00180594       0.00627997      -0.00024142
O        5.14871740       5.42067931       3.13621142       13       0.00180594       0.00627997       0.00024142
O        5.14871740       3.53380434       6.00085826       14       0.00180594      -0.00627997      -0.00024142
O        3.50968182       0.54897646       7.70474626       15      -0.00180594      -0.00627997       0.00024142
O        5.48863495       4.47724182       0.00000000       16       0.00108433      -0.00000000      -0.00000000
O        3.16976426       1.49241394       4.56853484       17      -0.00108433       0.00000000       0.00000000
O        0.28363119       1.49241394       0.00000000       18      -0.00108433       0.00000000      -0.00000000
O        2.60250188       4.47724182       4.56853484       19       0.00108433      -0.00000000       0.00000000
