20
Lattice="5.82473048812995 2.5099714901072673e-61 3.1812991954179755e-43 1.725296816333653e-62 5.871101093967555 -4.405723685225222e-18 -4.139061899873622e-43 7.88385933609623e-18 8.455194693392864" Properties=species:S:1:pos:R:3:spacegroup_kinds:I:1:forces:R:3 spacegroup="P 1" unit_cell=conventional occupancy="_JSON {\"0\": {\"In\": 1}, \"1\": {\"In\": 1}, \"2\": {\"In\": 1}, \"3\": {\"In\": 1}, \"4\": {\"In\": 1}, \"5\": {\"In\": 1}, \"6\": {\"In\": 1}, \"7\": {\"In\": 1}, \"8\": {\"O\": 1}, \"9\": {\"O\": 1}, \"10\": {\"O\": 1}, \"11\": {\"O\": 1}, \"12\": {\"O\": 1}, \"13\": {\"O\": 1}, \"14\": {\"O\": 1}, \"15\": {\"O\": 1}, \"16\": {\"O\": 1}, \"17\": {\"O\": 1}, \"18\": {\"O\": 1}, \"19\": {\"O\": 1}}" n_minim_iter=9 energy=-22574.309610681703 stress="0.0474143459734054 1.2289521396523734e-13 -1.678529063322461e-13 1.2289521396523734e-13 0.04746064513279412 -2.659751812600181e-13 -1.678529063322461e-13 -2.659751812600181e-13 0.0472799836876653" free_energy=-22574.309610681703 pbc="T T T"
In       1.43187409       3.10129211       0.98664586        0      -0.00099848      -0.00310397       0.00513103
In       1.48049115       0.16574156       3.24095149        1       0.00099848      -0.00310397      -0.00513103
In       1.48049115       2.76980899       5.21424320        2       0.00099848       0.00310397       0.00513103
In       1.43187409       5.70535953       7.46854884        3      -0.00099848       0.00310397      -0.00513103
In       4.39285640       2.76980899       7.46854884        4       0.00099848       0.00310397      -0.00513103
In       4.34423933       5.70535953       5.21424320        5      -0.00099848       0.00310397       0.00513103
In       4.34423933       3.10129211       3.24095149        6      -0.00099848      -0.00310397      -0.00513103
In       4.39285640       0.16574156       0.98664586        7       0.00099848      -0.00310397       0.00513103
O        2.27543473       3.51053636       7.18057345        8       0.00291887       0.00017370       0.00345752
O        0.63693051       0.57498582       5.50221859        9      -0.00291887       0.00017370      -0.00345752
O        0.63693051       2.36056473       2.95297610       10      -0.00291887      -0.00017370       0.00345752
O        2.27543473       5.29611528       1.27462125       11       0.00291887      -0.00017370      -0.00345752
O        3.54929576       2.36056473       1.27462125       12      -0.00291887      -0.00017370      -0.00345752
O        5.18779998       5.29611528       2.95297610       13       0.00291887      -0.00017370       0.00345752
O        5.18779998       3.51053636       5.50221859       14       0.00291887       0.00017370      -0.00345752
O        3.54929576       0.57498582       7.18057345       15      -0.00291887       0.00017370       0.00345752
O        5.55476691       4.40332582       0.00000000       16       0.00499542      -0.00000000      -0.00000000
O        3.18232882       1.46777527       4.22759735       17      -0.00499542       0.00000000      -0.00000000
O        0.26996358       1.46777527       0.00000000       18      -0.00499542       0.00000000       0.00000000
O        2.64240167       4.40332582       4.22759735       19       0.00499542      -0.00000000      -0.00000000
