20
Lattice="5.790133869656183 5.903966124079292e-62 2.2935606801111496e-44 -2.595863011560844e-61 5.825412610609193 9.857593962926515e-18 -3.1646136282136177e-43 7.05220786870058e-18 8.38192696455709" Properties=species:S:1:pos:R:3:spacegroup_kinds:I:1:forces:R:3 spacegroup="P 1" unit_cell=conventional occupancy="_JSON {\"0\": {\"In\": 1}, \"1\": {\"In\": 1}, \"2\": {\"In\": 1}, \"3\": {\"In\": 1}, \"4\": {\"In\": 1}, \"5\": {\"In\": 1}, \"6\": {\"In\": 1}, \"7\": {\"In\": 1}, \"8\": {\"O\": 1}, \"9\": {\"O\": 1}, \"10\": {\"O\": 1}, \"11\": {\"O\": 1}, \"12\": {\"O\": 1}, \"13\": {\"O\": 1}, \"14\": {\"O\": 1}, \"15\": {\"O\": 1}, \"16\": {\"O\": 1}, \"17\": {\"O\": 1}, \"18\": {\"O\": 1}, \"19\": {\"O\": 1}}" n_minim_iter=6 energy=-22574.58796341424 stress="0.03816693990055511 1.199281558249205e-12 -1.119413058336881e-13 1.199281558249205e-12 0.03792005671811628 -1.864267949035387e-13 -1.119413058336881e-13 -1.864267949035387e-13 0.03829641067026364" free_energy=-22574.58796341424 pbc="T T T"
In       1.43132700       3.06340262       0.97121811        0      -0.00783338       0.00454524      -0.00344669
In       1.46373994       0.15069631       3.21974537        1       0.00783338       0.00454524       0.00344669
In       1.46373994       2.76201000       5.16218159        2       0.00783338      -0.00454524      -0.00344669
In       1.43132700       5.67471630       7.41070886        3      -0.00783338      -0.00454524       0.00344669
In       4.35880687       2.76201000       7.41070886        4       0.00783338      -0.00454524       0.00344669
In       4.32639393       5.67471630       5.16218159        5      -0.00783338      -0.00454524      -0.00344669
In       4.32639393       3.06340262       3.21974537        6      -0.00783338       0.00454524       0.00344669
In       4.35880687       0.15069631       0.97121811        7       0.00783338       0.00454524      -0.00344669
O        2.26009115       3.50119763       7.12001522        8      -0.00054720      -0.00109856      -0.00200238
O        0.63497578       0.58849133       5.45287523        9       0.00054720      -0.00109856       0.00200238
O        0.63497578       2.32421498       2.92905174       10       0.00054720       0.00109856      -0.00200238
O        2.26009115       5.23692129       1.26191175       11      -0.00054720       0.00109856       0.00200238
O        3.53004272       2.32421498       1.26191175       12       0.00054720       0.00109856       0.00200238
O        5.15515809       5.23692129       2.92905174       13      -0.00054720       0.00109856      -0.00200238
O        5.15515809       3.50119763       5.45287523       14      -0.00054720      -0.00109856       0.00200238
O        3.53004272       0.58849133       7.12001522       15       0.00054720      -0.00109856      -0.00200238
O        5.53331093       4.36905946       0.00000000       16       0.00408998      -0.00000000       0.00000000
O        3.15188987       1.45635315       4.19096348       17      -0.00408998       0.00000000      -0.00000000
O        0.25682294       1.45635315       0.00000000       18      -0.00408998       0.00000000       0.00000000
O        2.63824400       4.36905946       4.19096348       19       0.00408998      -0.00000000       0.00000000
