20
Lattice="5.086926555018337 3.5465124511523836e-59 -6.181974755739271e-44 -7.327332074380089e-59 5.502337298516157 -3.186662591578961e-17 7.571607275455382e-44 -5.799884931319963e-17 7.346048541276385" Properties=species:S:1:pos:R:3:spacegroup_kinds:I:1:forces:R:3 spacegroup="P 1" unit_cell=conventional occupancy="_JSON {\"0\": {\"In\": 1}, \"1\": {\"In\": 1}, \"2\": {\"In\": 1}, \"3\": {\"In\": 1}, \"4\": {\"In\": 1}, \"5\": {\"In\": 1}, \"6\": {\"In\": 1}, \"7\": {\"In\": 1}, \"8\": {\"O\": 1}, \"9\": {\"O\": 1}, \"10\": {\"O\": 1}, \"11\": {\"O\": 1}, \"12\": {\"O\": 1}, \"13\": {\"O\": 1}, \"14\": {\"O\": 1}, \"15\": {\"O\": 1}, \"16\": {\"O\": 1}, \"17\": {\"O\": 1}, \"18\": {\"O\": 1}, \"19\": {\"O\": 1}}" n_minim_iter=12 energy=-22572.154074253292 stress="-0.20273956088374748 4.641870967467693e-13 6.755496478121287e-13 4.641870967467693e-13 -0.2027674198213252 -3.359980260628319e-13 6.755496478121287e-13 -3.359980260628319e-13 -0.2027459902663408" free_energy=-22572.154074253292 pbc="T T T"
In       1.25558257       2.99452850       0.90877687        0       0.00070854       0.00024970      -0.00048195
In       1.28788071       0.24335985       2.76424740        1      -0.00070854       0.00024970       0.00048195
In       1.28788071       2.50780880       4.58180114        2      -0.00070854      -0.00024970      -0.00048195
In       1.25558257       5.25897745       6.43727167        3       0.00070854      -0.00024970       0.00048195
In       3.83134399       2.50780880       6.43727167        4      -0.00070854      -0.00024970       0.00048195
In       3.79904584       5.25897745       4.58180114        5       0.00070854      -0.00024970      -0.00048195
In       3.79904584       2.99452850       2.76424740        6       0.00070854       0.00024970       0.00048195
In       3.83134399       0.24335985       0.90877687        7      -0.00070854       0.00024970      -0.00048195
O        1.96557408       3.30333662       6.30508301        8      -0.00019390       0.00012791       0.00069084
O        0.57788920       0.55216797       4.71398980        9       0.00019390       0.00012791      -0.00069084
O        0.57788920       2.19900067       2.63205874       10       0.00019390      -0.00012791       0.00069084
O        1.96557408       4.95016932       1.04096553       11      -0.00019390      -0.00012791      -0.00069084
O        3.12135248       2.19900067       1.04096553       12       0.00019390      -0.00012791      -0.00069084
O        4.50903735       4.95016932       2.63205874       13      -0.00019390      -0.00012791       0.00069084
O        4.50903735       3.30333662       4.71398980       14      -0.00019390       0.00012791      -0.00069084
O        3.12135248       0.55216797       6.30508301       15       0.00019390       0.00012791       0.00069084
O        4.76309592       4.12675297       0.00000000       16       0.00032328       0.00000000      -0.00000000
O        2.86729392       1.37558432       3.67302427       17      -0.00032328      -0.00000000       0.00000000
O        0.32383064       1.37558432       0.00000000       18      -0.00032328      -0.00000000       0.00000000
O        2.21963264       4.12675297       3.67302427       19       0.00032328      -0.00000000       0.00000000
