40
Lattice="8.691062505380412 6.811818951415926e-10 -1.0859222893531375e-14 -2.8970208357690295 8.194012310800451 -1.1798457975959626e-09 -2.8970208348056854 -4.097006154719036 7.096222820862197" Properties=species:S:1:pos:R:3:spacegroup_kinds:I:1:forces:R:3 spacegroup="P 1" unit_cell=conventional occupancy="_JSON {\"0\": {\"In\": 1}, \"1\": {\"In\": 1}, \"2\": {\"In\": 1}, \"3\": {\"In\": 1}, \"4\": {\"In\": 1}, \"5\": {\"In\": 1}, \"6\": {\"In\": 1}, \"7\": {\"In\": 1}, \"8\": {\"In\": 1}, \"9\": {\"In\": 1}, \"10\": {\"In\": 1}, \"11\": {\"In\": 1}, \"12\": {\"In\": 1}, \"13\": {\"In\": 1}, \"14\": {\"In\": 1}, \"15\": {\"In\": 1}, \"16\": {\"O\": 1}, \"17\": {\"O\": 1}, \"18\": {\"O\": 1}, \"19\": {\"O\": 1}, \"20\": {\"O\": 1}, \"21\": {\"O\": 1}, \"22\": {\"O\": 1}, \"23\": {\"O\": 1}, \"24\": {\"O\": 1}, \"25\": {\"O\": 1}, \"26\": {\"O\": 1}, \"27\": {\"O\": 1}, \"28\": {\"O\": 1}, \"29\": {\"O\": 1}, \"30\": {\"O\": 1}, \"31\": {\"O\": 1}, \"32\": {\"O\": 1}, \"33\": {\"O\": 1}, \"34\": {\"O\": 1}, \"35\": {\"O\": 1}, \"36\": {\"O\": 1}, \"37\": {\"O\": 1}, \"38\": {\"O\": 1}, \"39\": {\"O\": 1}}" n_minim_iter=4 energy=-45150.88763696916 stress="-0.050751483369867456 5.054005824999612e-13 -3.2560341904764835e-13 5.054005824999612e-13 -0.05075148337055384 2.0620277858511024e-13 -3.2560341904764835e-13 2.0620277858511024e-13 -0.05075148337053723" free_energy=-45150.88763696916 pbc="T T T"
In      -4.14722718       2.93253246       5.56503901        0       0.00091949      -0.00065018       0.00112615
In       7.04424801       1.16447370       1.53118381        1      -0.00091949       0.00065018      -0.00112615
In       1.25020634      -0.88402938       5.07929522        2      -0.00091949       0.00065018      -0.00112615
In      -1.44851042      -2.04850308       3.54811141        3       0.00000000      -0.00000000      -0.00000000
In      -1.25020635       3.95678400       3.30523951        4       0.00091949      -0.00065018      -0.00112615
In       4.54383532      -2.79231031       5.32216711        5       0.00091949       0.00130036      -0.00000000
In      -1.25020635       1.30469585       5.32216711        6       0.00091949       0.00130036       0.00000000
In      -1.64681449       6.88931647       1.77405570        7      -0.00091949      -0.00130036       0.00000000
In       4.14722718       0.14022216       3.79098330        8      -0.00091949       0.00065018       0.00112615
In      -1.44851042       4.09700616      -0.00000000        9       0.00000000       0.00000000       0.00000000
In       4.14722718       6.28573139       0.24287189       10      -0.00091949       0.00065018       0.00112615
In      -1.25020635      -2.18872523       6.85335092       11       0.00091949      -0.00065018      -0.00112615
In       4.14722718       2.79231031       1.77405570       12      -0.00091949      -0.00130036      -0.00000000
In       1.64681449       4.98103554       2.01692760       13       0.00091949      -0.00065018       0.00112615
In       4.34553125       0.00000000      -0.00000000       14      -0.00000000      -0.00000000       0.00000000
In       1.44851042       2.04850308       3.54811141       15       0.00000000       0.00000000      -0.00000000
O        0.84435940       4.09518726       3.87440046       16       0.00353991      -0.00415370      -0.00251915
O       -2.05266144       3.35623867       5.16059780       17       0.00353991      -0.00010480       0.00485679
O       -0.41866402       2.20082802       0.06560493       18      -0.00283498       0.00440293      -0.00295083
O       -0.84435940      -0.74258638       1.93877544       19      -0.00353991      -0.00425850       0.00233764
O        3.84851264       4.87746956       1.87317050       20      -0.00127878       0.00255484       0.00528847
O        1.94552902       2.86502462       1.61248639       21       0.00127878      -0.00330253       0.00485679
O        1.94552902       6.10945111       0.26068411       22       0.00127878       0.00585737       0.00043168
O       -2.21451523       5.80662012       3.61371634       23      -0.00509612       0.00120520      -0.00295083
O        3.31568485       1.89617814       7.03061788       24       0.00283498      -0.00440293       0.00295083
O        5.11153606      -1.70961396       3.48250647       25       0.00509612      -0.00120520       0.00295083
O        6.21270569       3.20573263       1.67494090       26       0.00283498      -0.00035403      -0.00528847
O        3.57952644       2.27476318       3.80879552       27      -0.00509612      -0.00315810       0.00043168
O        0.68250560       4.20963518       6.76993377       28      -0.00509612       0.00195289       0.00251915
O        2.21451523      -0.11262902       0.32628905       29       0.00509612      -0.00195289      -0.00251915
O       -3.31568486       0.89127353       5.42128191       30      -0.00283498       0.00035403       0.00528847
O        4.94968227       0.74076749       1.93562502       31      -0.00353991       0.00010480      -0.00485679
O        0.95149181       1.23198154       5.48373643       32      -0.00127878       0.00330253      -0.00485679
O        3.31568485      -1.00490461       5.48688685       33       0.00283498       0.00475696       0.00233764
O        2.05266143       0.00181890       3.22182236       34      -0.00353991       0.00415370       0.00251915
O        0.95149181      -2.01244495       6.83553870       35      -0.00127878      -0.00585737      -0.00043168
O       -0.68250561       1.82224298       3.28742729       36       0.00509612       0.00315810      -0.00043168
O       -0.95149181      -0.78046340       5.22305231       37       0.00127878      -0.00255484      -0.00528847
O       -0.41866402       5.10191076       1.60933597       38      -0.00283498      -0.00475696      -0.00233764
O        3.74138023       4.83959254       5.15744738       39       0.00353991       0.00425850      -0.00233764
