40
Lattice="8.76866538391156 6.872600194781048e-10 -4.689165296060644e-15 -2.9228884619518087 8.267177006330378 -1.1903751006649247e-09 -2.9228884609798693 -4.133588502477923 7.1595853058582835" Properties=species:S:1:pos:R:3:spacegroup_kinds:I:1:forces:R:3 spacegroup="P 1" unit_cell=conventional occupancy="_JSON {\"0\": {\"In\": 1}, \"1\": {\"In\": 1}, \"2\": {\"In\": 1}, \"3\": {\"In\": 1}, \"4\": {\"In\": 1}, \"5\": {\"In\": 1}, \"6\": {\"In\": 1}, \"7\": {\"In\": 1}, \"8\": {\"In\": 1}, \"9\": {\"In\": 1}, \"10\": {\"In\": 1}, \"11\": {\"In\": 1}, \"12\": {\"In\": 1}, \"13\": {\"In\": 1}, \"14\": {\"In\": 1}, \"15\": {\"In\": 1}, \"16\": {\"O\": 1}, \"17\": {\"O\": 1}, \"18\": {\"O\": 1}, \"19\": {\"O\": 1}, \"20\": {\"O\": 1}, \"21\": {\"O\": 1}, \"22\": {\"O\": 1}, \"23\": {\"O\": 1}, \"24\": {\"O\": 1}, \"25\": {\"O\": 1}, \"26\": {\"O\": 1}, \"27\": {\"O\": 1}, \"28\": {\"O\": 1}, \"29\": {\"O\": 1}, \"30\": {\"O\": 1}, \"31\": {\"O\": 1}, \"32\": {\"O\": 1}, \"33\": {\"O\": 1}, \"34\": {\"O\": 1}, \"35\": {\"O\": 1}, \"36\": {\"O\": 1}, \"37\": {\"O\": 1}, \"38\": {\"O\": 1}, \"39\": {\"O\": 1}}" n_minim_iter=6 energy=-45151.728987841816 stress="-0.01383618977119865 -9.601407270058524e-14 2.9305505709616764e-13 -9.601407270058524e-14 -0.01383618977179223 -1.9425433696490228e-13 2.9305505709616764e-13 -1.9425433696490228e-13 -0.013836189770805012" free_energy=-45151.728987841816 pbc="T T T"
In      -4.18826742       2.96155230       5.60981891        0      -0.00321582       0.00227393      -0.00393856
In       7.11115588       1.17203621       1.54976639        1       0.00321582      -0.00227393       0.00393856
In       1.26537896      -0.89475804       5.12955904        2       0.00321582      -0.00227393       0.00393856
In      -1.46144423      -2.06679425       3.57979265        3       0.00000000       0.00000000       0.00000000
In      -1.26537896       3.99494942       3.33966271        4      -0.00321582       0.00227393       0.00393856
In       4.58039796      -2.82291321       5.36968898        5      -0.00321582      -0.00454786      -0.00000000
In      -1.26537896       1.31067530       5.36968898        6      -0.00321582      -0.00454786      -0.00000000
In      -1.65750951       6.95650171       1.78989632        7       0.00321582       0.00454786      -0.00000000
In       4.18826742       0.13863909       3.81992259        8       0.00321582      -0.00227393      -0.00393856
In      -1.46144423       4.13358850      -0.00000000        9      -0.00000000      -0.00000000      -0.00000000
In       4.18826742       6.33902184       0.24012993       10       0.00321582      -0.00227393      -0.00393856
In      -1.26537896      -2.20543333       6.91945537       11      -0.00321582       0.00227393       0.00393856
In       4.18826742       2.82291321       1.78989632       12       0.00321582       0.00454786      -0.00000000
In       1.65750950       5.02834655       2.03002626       13      -0.00321582       0.00227393      -0.00393856
In       4.38433269       0.00000000      -0.00000000       14       0.00000000       0.00000000       0.00000000
In       1.46144423       2.06679425       3.57979265       15      -0.00000000       0.00000000       0.00000000
O        0.85607144       4.13277875       3.89880238       16      -0.00123889      -0.00321756      -0.00354448
O       -2.06681702       3.37686679       5.21088537       17      -0.00123889      -0.00146083       0.00455873
O       -0.42885037       2.21864946       0.05739132       18      -0.00482379       0.00107408       0.00016814
O       -0.85607144      -0.75753147       1.95010246       19       0.00123889      -0.00467839       0.00101425
O        3.87267954       4.92425487       1.89271113       20      -0.00096432       0.00477547       0.00084611
O        1.97309737       2.88978576       1.63109272       21       0.00096432       0.00165498       0.00455873
O        1.97309737       6.16805761       0.26161841       22       0.00096432       0.00312048      -0.00371262
O       -2.23471290       5.86515694       3.63718397       23      -0.00262058       0.00418989       0.00016814
O        3.35173883       1.91493904       7.10219398       24       0.00482379      -0.00107408      -0.00016814
O        5.15760136      -1.73156843       3.52240133       25       0.00262058      -0.00418989      -0.00016814
O        6.27462729       3.22582133       1.68708152       26       0.00482379       0.00068265      -0.00084611
O        3.61106402       2.28410951       3.84141106       27      -0.00262058      -0.00194933      -0.00371262
O        0.68817556       4.25149907       6.84057557       28      -0.00262058      -0.00224056       0.00354448
O        2.23471290      -0.11791056       0.31900973       29       0.00262058       0.00224056      -0.00354448
O       -3.35173883       0.90776718       5.47250378       30      -0.00482379      -0.00068265       0.00084611
O        4.98970548       0.75672172       1.94869993       31       0.00123889       0.00146083      -0.00455873
O        0.94979108       1.24380274       5.52849258       32      -0.00096432      -0.00165498      -0.00455873
O        3.35173883      -1.00717186       5.52989511       33       0.00482379       0.00039142       0.00101425
O        2.06681702       0.00080975       3.26078292       34       0.00123889       0.00321756       0.00354448
O        0.94979108      -2.03446910       6.89796689       35      -0.00096432      -0.00312048       0.00371262
O       -0.68817557       1.84947900       3.31817424       36       0.00262058       0.00194933       0.00371262
O       -0.94979109      -0.79066636       5.26687417       37       0.00096432      -0.00477547      -0.00084611
O       -0.42885037       5.14076037       1.62969019       38      -0.00482379      -0.00039142      -0.00101425
O        3.77895990       4.89111997       5.20948284       39      -0.00123889       0.00467839      -0.00101425
