40
Lattice="9.207813709320975 7.216793798908097e-10 -7.120046058618869e-16 -3.0692712371207347 8.681210018110521 -1.2499922604111122e-09 -3.069271236100122 -4.340605008333575 7.518148412105013" Properties=species:S:1:pos:R:3:spacegroup_kinds:I:1:forces:R:3 spacegroup="P 1" unit_cell=conventional occupancy="_JSON {\"0\": {\"In\": 1}, \"1\": {\"In\": 1}, \"2\": {\"In\": 1}, \"3\": {\"In\": 1}, \"4\": {\"In\": 1}, \"5\": {\"In\": 1}, \"6\": {\"In\": 1}, \"7\": {\"In\": 1}, \"8\": {\"In\": 1}, \"9\": {\"In\": 1}, \"10\": {\"In\": 1}, \"11\": {\"In\": 1}, \"12\": {\"In\": 1}, \"13\": {\"In\": 1}, \"14\": {\"In\": 1}, \"15\": {\"In\": 1}, \"16\": {\"O\": 1}, \"17\": {\"O\": 1}, \"18\": {\"O\": 1}, \"19\": {\"O\": 1}, \"20\": {\"O\": 1}, \"21\": {\"O\": 1}, \"22\": {\"O\": 1}, \"23\": {\"O\": 1}, \"24\": {\"O\": 1}, \"25\": {\"O\": 1}, \"26\": {\"O\": 1}, \"27\": {\"O\": 1}, \"28\": {\"O\": 1}, \"29\": {\"O\": 1}, \"30\": {\"O\": 1}, \"31\": {\"O\": 1}, \"32\": {\"O\": 1}, \"33\": {\"O\": 1}, \"34\": {\"O\": 1}, \"35\": {\"O\": 1}, \"36\": {\"O\": 1}, \"37\": {\"O\": 1}, \"38\": {\"O\": 1}, \"39\": {\"O\": 1}}" n_minim_iter=7 energy=-45151.047372719295 stress="0.03706918648051874 -1.0117448171643864e-14 -8.324574200269762e-13 -1.0117448171643864e-14 0.03706918647961086 -5.767574950978229e-14 -8.324574200269762e-13 -5.767574950978229e-14 0.037069186480595984" free_energy=-45151.047372719295 pbc="T T T"
In      -4.37642116       3.09459708       5.91722324        0      -0.00324264       0.00229289      -0.00397140
In       7.44569240       1.24600793       1.60092516        1       0.00324264      -0.00229289       0.00397140
In       1.30714992      -0.92429457       5.35999937        2       0.00324264      -0.00229289       0.00397140
In      -1.53463562      -2.17030250       3.75907420        3      -0.00000000      -0.00000000       0.00000000
In      -1.30714993       4.17974833       3.48046227        4      -0.00324264       0.00229289       0.00397140
In       4.83139255      -2.93374040       5.63861131        5      -0.00324264      -0.00458578       0.00000000
In      -1.30714993       1.40686461       5.63861131        6      -0.00324264      -0.00458578       0.00000000
In      -1.76212131       7.27434542       1.87953710        7       0.00324264       0.00458578      -0.00000000
In       4.37642116       0.16085668       4.03768614        8       0.00324264      -0.00229289      -0.00397140
In      -1.53463562       4.34060501      -0.00000000        9       0.00000000      -0.00000000      -0.00000000
In       4.37642116       6.67176419       0.27861193       10       0.00324264      -0.00229289      -0.00397140
In      -1.30714993      -2.33115918       7.23953647       11      -0.00324264       0.00229289       0.00397140
In       4.37642116       2.93374041       1.87953710       12       0.00324264       0.00458578       0.00000000
In       1.76212131       5.26489959       2.15814904       13      -0.00324264       0.00229289      -0.00397140
In       4.60390685       0.00000000      -0.00000000       14       0.00000000      -0.00000000       0.00000000
In       1.53463562       2.17030251       3.75907420       15      -0.00000000       0.00000000      -0.00000000
O        0.94288285       4.34558749       4.08213697       16       0.00266732       0.00352875      -0.00572635
O       -2.12638839       3.53274309       5.47276497       17       0.00266732      -0.00672354      -0.00019282
O       -0.44266772       2.34217278       0.01674481       18      -0.00212297      -0.00333630      -0.00605969
O       -0.94288285      -0.80287945       2.03675353       19      -0.00266732      -0.00319479      -0.00591916
O        4.03949825       5.15315208       2.02000872       20      -0.00722812      -0.00030378       0.00014053
O        2.09904422       2.99749968       1.71369077       21       0.00722812      -0.00027359      -0.00019282
O        2.09904422       6.49625742       0.30631795       22       0.00722812      -0.00003019       0.00033334
O       -2.35577759       6.14753439       3.77581902       23       0.00243784       0.00311365      -0.00605969
O        3.51193896       1.99843223       7.50140359       24       0.00212297       0.00333630       0.00605969
O        5.42504882      -1.80692937       3.74232939       25      -0.00243784      -0.00311365       0.00605969
O        6.58121019       3.35589033       1.73906548       26       0.00212297      -0.00691600      -0.00014053
O        3.78276489       2.36649051       4.06539216       27       0.00243784      -0.00680467       0.00033334
O        0.71349365       4.50779014       7.19508564       28       0.00243784       0.00369102       0.00572635
O        2.35577758      -0.16718513       0.32306277       29      -0.00243784      -0.00369102      -0.00572635
O       -3.51193896       0.98471468       5.77908293       30      -0.00212297       0.00691600       0.00014053
O        5.19565962       0.80786193       2.04538343       31      -0.00266732       0.00672354       0.00019282
O        0.97022701       1.34310534       5.80445764       32      -0.00722812       0.00027359       0.00019282
O        3.51193896      -1.01371755       5.79582774       33       0.00212297       0.00357970      -0.00591916
O        2.12638839      -0.00498247       3.43601144       34      -0.00266732      -0.00352875       0.00572635
O        0.97022701      -2.15565240       7.21183046       35      -0.00722812       0.00003019      -0.00033334
O       -0.71349365       1.97411451       3.45275625       36      -0.00243784       0.00680467      -0.00033334
O       -0.97022702      -0.81254707       5.49813969       37       0.00722812       0.00030378      -0.00014053
O       -0.44266773       5.35432256       1.72232067       38      -0.00212297      -0.00357970       0.00591916
O        4.01215408       5.14348446       5.48139487       39       0.00266732       0.00319479       0.00591916
