40
Lattice="9.277047990974149 7.271093751018459e-10 4.139717929215889e-15 -3.0923493310102397 8.746484724838774 -1.2594005427868368e-09 -3.092349329981956 -4.373242361692269 7.57467796636252" Properties=species:S:1:pos:R:3:spacegroup_kinds:I:1:forces:R:3 spacegroup="P 1" unit_cell=conventional occupancy="_JSON {\"0\": {\"In\": 1}, \"1\": {\"In\": 1}, \"2\": {\"In\": 1}, \"3\": {\"In\": 1}, \"4\": {\"In\": 1}, \"5\": {\"In\": 1}, \"6\": {\"In\": 1}, \"7\": {\"In\": 1}, \"8\": {\"In\": 1}, \"9\": {\"In\": 1}, \"10\": {\"In\": 1}, \"11\": {\"In\": 1}, \"12\": {\"In\": 1}, \"13\": {\"In\": 1}, \"14\": {\"In\": 1}, \"15\": {\"In\": 1}, \"16\": {\"O\": 1}, \"17\": {\"O\": 1}, \"18\": {\"O\": 1}, \"19\": {\"O\": 1}, \"20\": {\"O\": 1}, \"21\": {\"O\": 1}, \"22\": {\"O\": 1}, \"23\": {\"O\": 1}, \"24\": {\"O\": 1}, \"25\": {\"O\": 1}, \"26\": {\"O\": 1}, \"27\": {\"O\": 1}, \"28\": {\"O\": 1}, \"29\": {\"O\": 1}, \"30\": {\"O\": 1}, \"31\": {\"O\": 1}, \"32\": {\"O\": 1}, \"33\": {\"O\": 1}, \"34\": {\"O\": 1}, \"35\": {\"O\": 1}, \"36\": {\"O\": 1}, \"37\": {\"O\": 1}, \"38\": {\"O\": 1}, \"39\": {\"O\": 1}}" n_minim_iter=1 energy=-45149.73124229751 stress="0.06128667061660457 -1.7692598919962296e-14 -3.3993890292832805e-13 -1.7692598919962296e-14 0.06128667061687193 1.5866827263154558e-13 -3.3993890292832805e-13 1.5866827263154558e-13 0.06128667061757652" free_energy=-45149.73124229751 pbc="T T T"
In      -4.39926746       3.11075186       5.97403668        0       0.05166973      -0.03653602       0.06328224
In       7.49161679       1.26249051       1.60064128        1      -0.05166973       0.03653602      -0.06328224
In       1.30691813      -0.92413067       5.38798026        2      -0.05166973       0.03653602      -0.06328224
In      -1.54617467      -2.18662118       3.78733898        3       0.00000000      -0.00000000       0.00000000
In      -1.30691813       4.20406245       3.49431077        4       0.05166973      -0.03653602      -0.06328224
In       4.87778053      -2.94157193       5.68100847        5       0.05166973       0.07307203       0.00000000
In      -1.30691813       1.43167043       5.68100847        6       0.05166973       0.07307203       0.00000000
In      -1.78543120       7.31481430       1.89366949        7      -0.05166973      -0.07307203       0.00000000
In       4.39926746       0.16917992       4.08036719        8      -0.05166973       0.03653602       0.06328224
In      -1.54617467       4.37324236      -0.00000000        9       0.00000000       0.00000000      -0.00000000
In       4.39926746       6.72904346       0.29302821       10      -0.05166973       0.03653602       0.06328224
In      -1.30691813      -2.35580110       7.28164975       11       0.05166973      -0.03653602      -0.06328224
In       4.39926746       2.94157194       1.89366949       12      -0.05166973      -0.07307203       0.00000000
In       1.78543120       5.29737304       2.18669770       13       0.05166973      -0.03653602       0.06328224
In       4.63852399       0.00000000      -0.00000000       14       0.00000000       0.00000000      -0.00000000
In       1.54617466       2.18662118       3.78733898       15      -0.00000000      -0.00000000      -0.00000000
O        0.96536795       4.37888489       4.10986602       16       0.02459129       0.00235630      -0.06363362
O       -2.12698139       3.55642712       5.51485838       17       0.02459129      -0.05628648       0.02977620
O       -0.44299166       2.36566656       0.00263819       18      -0.04264877      -0.00874058      -0.05257571
O       -0.96536795      -0.81117272       2.05004643       19      -0.02459129      -0.05393018      -0.03385742
O        4.06202543       5.18593825       2.04740824       20      -0.06126450       0.02357558       0.01871829
O        2.12267323       3.00648276       1.72751940       21       0.06126450      -0.00442273       0.02977620
O        2.12267323       6.55269785       0.31988884       22       0.06126450       0.02799830      -0.01105790
O       -2.37803571       6.18896457       3.78997718       23      -0.00597556       0.04312317      -0.05257571
O        3.53534099       2.00757581       7.57203977       24       0.04264877       0.00874058       0.05257571
O        5.47038504      -1.81572220       3.78470079       25       0.00597556      -0.04312317       0.05257571
O        6.62769032       3.37173921       1.73993074       26       0.04264877      -0.04990220      -0.01871829
O        3.80666295       2.37435542       4.10722782       27      -0.00597556      -0.06709349      -0.01105790
O        0.71431362       4.55640711       7.25215093       28      -0.00597556       0.02397032       0.06363362
O        2.37803571      -0.18316474       0.32252703       29       0.00597556      -0.02397032      -0.06363362
O       -3.53534099       1.00150316       5.83474722       30      -0.04264877       0.04990220       0.01871829
O        5.21933071       0.81681525       2.05981958       31      -0.02459129       0.05628648      -0.02977620
O        0.96967610       1.36675961       5.84715856       32      -0.06126450       0.00442273      -0.02977620
O        3.53534099      -1.00607264       5.83738542       33       0.04264877       0.04116161      -0.03385742
O        2.12698138      -0.00564253       3.46481195       34      -0.02459129      -0.00235630       0.06363362
O        0.96967610      -2.17945549       7.25478912       35      -0.06126450      -0.02799830       0.01105790
O       -0.71431362       1.99888695       3.46745014       36       0.00597556       0.06709349       0.01105790
O       -0.96967610      -0.81269588       5.52726972       37       0.06126450      -0.02357558      -0.01871829
O       -0.44299166       5.37931501       1.73729254       38      -0.04264877      -0.04116161       0.03385742
O        4.05771728       5.18441509       5.52463153       39       0.02459129       0.05393018       0.03385742
40
Lattice="9.277047990974152 7.271093751018462e-10 4.139717929215888e-15 -3.092349331010241 8.746484724838778 -1.2594005427868374e-09 -3.0923493299819573 -4.373242361692271 7.574677966362524" Properties=species:S:1:pos:R:3:spacegroup_kinds:I:1:forces:R:3 spacegroup="P 1" unit_cell=conventional occupancy="_JSON {\"0\": {\"In\": 1}, \"1\": {\"In\": 1}, \"2\": {\"In\": 1}, \"3\": {\"In\": 1}, \"4\": {\"In\": 1}, \"5\": {\"In\": 1}, \"6\": {\"In\": 1}, \"7\": {\"In\": 1}, \"8\": {\"In\": 1}, \"9\": {\"In\": 1}, \"10\": {\"In\": 1}, \"11\": {\"In\": 1}, \"12\": {\"In\": 1}, \"13\": {\"In\": 1}, \"14\": {\"In\": 1}, \"15\": {\"In\": 1}, \"16\": {\"O\": 1}, \"17\": {\"O\": 1}, \"18\": {\"O\": 1}, \"19\": {\"O\": 1}, \"20\": {\"O\": 1}, \"21\": {\"O\": 1}, \"22\": {\"O\": 1}, \"23\": {\"O\": 1}, \"24\": {\"O\": 1}, \"25\": {\"O\": 1}, \"26\": {\"O\": 1}, \"27\": {\"O\": 1}, \"28\": {\"O\": 1}, \"29\": {\"O\": 1}, \"30\": {\"O\": 1}, \"31\": {\"O\": 1}, \"32\": {\"O\": 1}, \"33\": {\"O\": 1}, \"34\": {\"O\": 1}, \"35\": {\"O\": 1}, \"36\": {\"O\": 1}, \"37\": {\"O\": 1}, \"38\": {\"O\": 1}, \"39\": {\"O\": 1}}" n_minim_iter=2 energy=-45149.74158366765 stress="0.060180663673700834 2.2098583777166466e-13 -3.909344258545411e-13 2.2098583777166466e-13 0.06018066367468913 6.620989535638382e-13 -3.909344258545411e-13 6.620989535638382e-13 0.060180663674614034" free_energy=-45149.74158366765 pbc="T T T"
In      -4.39557677       3.10814214       5.97855684        0       0.02205989      -0.01559870       0.02701774
In       7.48792609       1.26510023       1.59612112        1      -0.02205989       0.01559870      -0.02701774
In       1.30322743      -0.92152095       5.38346010        2      -0.02205989       0.01559870      -0.02701774
In      -1.54617467      -2.18662118       3.78733898        3       0.00000000      -0.00000000      -0.00000000
In      -1.30322744       4.20145273       3.48979061        4       0.02205989      -0.01559870      -0.02701774
In       4.88147122      -2.93635250       5.68100847        5       0.02205989       0.03119740       0.00000000
In      -1.30322744       1.43688986       5.68100847        6       0.02205989       0.03119740      -0.00000000
In      -1.78912190       7.30959487       1.89366949        7      -0.02205989      -0.03119740      -0.00000000
In       4.39557676       0.17178964       4.08488735        8      -0.02205989       0.01559870       0.02701774
In      -1.54617467       4.37324236      -0.00000000        9       0.00000000      -0.00000000       0.00000000
In       4.39557676       6.73165318       0.29754837       10      -0.02205989       0.01559870       0.02701774
In      -1.30322744      -2.35841081       7.27712959       11       0.02205989      -0.01559870      -0.02701774
In       4.39557676       2.93635251       1.89366949       12      -0.02205989      -0.03119740       0.00000000
In       1.78912189       5.29476332       2.19121786       13       0.02205989      -0.01559870       0.02701774
In       4.63852399       0.00000000      -0.00000000       14      -0.00000000      -0.00000000       0.00000000
In       1.54617466       2.18662118       3.78733898       15       0.00000000       0.00000000      -0.00000000
O        0.96712447       4.37905320       4.10532076       16       0.02608527       0.00354132      -0.01621459
O       -2.12522486       3.55240665       5.51698525       17       0.02608527      -0.01581291       0.00504043
O       -0.44603800       2.36504223      -0.00111722       18      -0.00287468       0.00466487      -0.03042812
O       -0.96712447      -0.81502487       2.04762805       19      -0.02608527      -0.01227159      -0.01117417
O        4.05764940       5.18762222       2.04874526       20      -0.02360364      -0.00529609       0.01925395
O        2.12704926       3.00616685       1.72964627       21       0.02360364      -0.01932246       0.00504043
O        2.12704926       6.55469773       0.31909899       22       0.02360364       0.01402637       0.01421353
O       -2.37846254       6.19204479       3.78622177       23      -0.00535631       0.00115532      -0.03042812
O        3.53838733       2.00820013       7.57579518       24       0.00287468      -0.00466487       0.03042812
O        5.47081186      -1.81880243       3.78845619       25       0.00535631      -0.00115532       0.03042812
O        6.63073666       3.36817477       1.73859372       26       0.00287468      -0.02401909      -0.01925395
O        3.80623612       2.36956303       4.10643797       27      -0.00535631      -0.02692919       0.01421353
O        0.71388679       4.55811928       7.25669619       28      -0.00535631       0.02577387       0.01621459
O        2.37846253      -0.18487691       0.31798177       29       0.00535631      -0.02577387      -0.01621459
O       -3.53838733       1.00506760       5.83608424       30      -0.00287468       0.02401909       0.01925395
O        5.21757419       0.82083571       2.05769271       31      -0.02608527       0.01581291      -0.00504043
O        0.96530007       1.36707552       5.84503169       32      -0.02360364       0.01932246      -0.00504043
O        3.53838733      -1.00313253       5.83496703       33       0.00287468       0.02868396      -0.01117417
O        2.12522486      -0.00581083       3.46935720       34      -0.02608527      -0.00354132       0.01621459
O        0.96530007      -2.18145537       7.25557897       35      -0.02360364      -0.01402637      -0.01421353
O       -0.71388680       2.00367934       3.46823999       36       0.00535631       0.02692919      -0.01421353
O       -0.96530007      -0.81437985       5.52593270       37       0.02360364       0.00529609      -0.01925396
O       -0.44603800       5.37637489       1.73971093       38      -0.00287468      -0.02868396       0.01117417
O        4.05947380       5.18826724       5.52704991       39       0.02608527       0.01227159       0.01117417
40
Lattice="9.277047990974152 7.271093751018462e-10 4.13971792921589e-15 -3.092349331010241 8.746484724838778 -1.2594005427868374e-09 -3.0923493299819573 -4.373242361692271 7.574677966362524" Properties=species:S:1:pos:R:3:spacegroup_kinds:I:1:forces:R:3 spacegroup="P 1" unit_cell=conventional occupancy="_JSON {\"0\": {\"In\": 1}, \"1\": {\"In\": 1}, \"2\": {\"In\": 1}, \"3\": {\"In\": 1}, \"4\": {\"In\": 1}, \"5\": {\"In\": 1}, \"6\": {\"In\": 1}, \"7\": {\"In\": 1}, \"8\": {\"In\": 1}, \"9\": {\"In\": 1}, \"10\": {\"In\": 1}, \"11\": {\"In\": 1}, \"12\": {\"In\": 1}, \"13\": {\"In\": 1}, \"14\": {\"In\": 1}, \"15\": {\"In\": 1}, \"16\": {\"O\": 1}, \"17\": {\"O\": 1}, \"18\": {\"O\": 1}, \"19\": {\"O\": 1}, \"20\": {\"O\": 1}, \"21\": {\"O\": 1}, \"22\": {\"O\": 1}, \"23\": {\"O\": 1}, \"24\": {\"O\": 1}, \"25\": {\"O\": 1}, \"26\": {\"O\": 1}, \"27\": {\"O\": 1}, \"28\": {\"O\": 1}, \"29\": {\"O\": 1}, \"30\": {\"O\": 1}, \"31\": {\"O\": 1}, \"32\": {\"O\": 1}, \"33\": {\"O\": 1}, \"34\": {\"O\": 1}, \"35\": {\"O\": 1}, \"36\": {\"O\": 1}, \"37\": {\"O\": 1}, \"38\": {\"O\": 1}, \"39\": {\"O\": 1}}" n_minim_iter=3 energy=-45149.743754504954 stress="0.05940165978739226 7.946093328975199e-13 5.401430065844921e-13 7.946093328975199e-13 0.0594016597874622 7.426504817253744e-13 5.401430065844921e-13 7.426504817253744e-13 0.05940165978778243" free_energy=-45149.743754504954 pbc="T T T"
In      -4.39307748       3.10637487       5.98161784        0       0.00245969      -0.00173926       0.00301249
In       7.48542680       1.26686749       1.59306012        1      -0.00245969       0.00173926      -0.00301249
In       1.30072814      -0.91975369       5.38039910        2      -0.00245969       0.00173926      -0.00301249
In      -1.54617467      -2.18662118       3.78733898        3      -0.00000000       0.00000000      -0.00000000
In      -1.30072815       4.19968547       3.48672961        4       0.00245969      -0.00173926      -0.00301249
In       4.88397051      -2.93281797       5.68100847        5       0.00245969       0.00347852      -0.00000000
In      -1.30072815       1.44042439       5.68100847        6       0.00245969       0.00347852      -0.00000000
In      -1.79162119       7.30606034       1.89366949        7      -0.00245969      -0.00347852      -0.00000000
In       4.39307747       0.17355690       4.08794835        8      -0.00245969       0.00173926       0.00301249
In      -1.54617467       4.37324236      -0.00000000        9      -0.00000000       0.00000000      -0.00000000
In       4.39307747       6.73342044       0.30060936       10      -0.00245969       0.00173926       0.00301249
In      -1.30072815      -2.36017808       7.27406860       11       0.00245969      -0.00173926      -0.00301249
In       4.39307747       2.93281798       1.89366949       12      -0.00245969      -0.00347852      -0.00000000
In       1.79162118       5.29299606       2.19427886       13       0.00245969      -0.00173926       0.00301249
In       4.63852399       0.00000000      -0.00000000       14      -0.00000000       0.00000000      -0.00000000
In       1.54617466       2.18662118       3.78733898       15      -0.00000000      -0.00000000       0.00000000
O        0.96867983       4.37922669       4.10249988       16       0.02554744       0.00281104       0.01365843
O       -2.12366950       3.54987696       5.51824544       17       0.02554744       0.01042302      -0.00926365
O       -0.44774100       2.36481655      -0.00384769       18       0.02099301       0.01364349      -0.01484166
O       -0.96867983      -0.81738108       2.04606736       19      -0.02554744       0.01323406       0.00439478
O        4.05474592       5.18840199       2.04991504       20       0.00131111      -0.02180290       0.01923644
O        2.12995274       3.00554367       1.73090646       21      -0.00131111      -0.02756070      -0.00926365
O        2.12995274       6.55610068       0.31900858       22      -0.00131111       0.00575780       0.02850009
O       -2.37881742       6.19372562       3.78349130       23      -0.00586554      -0.02434023      -0.01484166
O        3.54009033       2.00842582       7.57852565       24      -0.02099301      -0.01364349       0.01484166
O        5.47116675      -1.82048326       3.79118666       25       0.00586554       0.02434023       0.01484166
O        6.63243966       3.36569727       1.73742393       26      -0.02099301      -0.00603151      -0.01923644
O        3.80588124       2.36635795       4.10634756       27      -0.00586554      -0.00068314       0.02850009
O        0.71353191       4.55964352       7.25951706       28      -0.00586554       0.02502337      -0.01365843
O        2.37881742      -0.18640115       0.31516090       29       0.00586554      -0.02502337       0.01365843
O       -3.54009033       1.00754510       5.83725403       30       0.02099301       0.00603151       0.01923644
O        5.21601883       0.82336541       2.05643252       31      -0.02554744      -0.01042302       0.00926365
O        0.96239659       1.36769870       5.84377150       32       0.00131111       0.02756070       0.00926365
O        3.54009033      -1.00088071       5.83340634       33      -0.02099301       0.01967500       0.00439478
O        2.12366950      -0.00598432       3.47217808       34      -0.02554744      -0.00281104      -0.01365843
O        0.96239659      -2.18285831       7.25566938       35       0.00131111      -0.00575780      -0.02850009
O       -0.71353191       2.00688441       3.46833040       36       0.00586554       0.00068314      -0.02850009
O       -0.96239659      -0.81515962       5.52476292       37      -0.00131111       0.02180290      -0.01923644
O       -0.44774100       5.37412308       1.74127162       38       0.02099301      -0.01967500      -0.00439478
O        4.06102916       5.19062345       5.52861060       39       0.02554744      -0.01323406      -0.00439478
40
Lattice="9.27704799097416 7.271093751018466e-10 4.1397179292159075e-15 -3.092349331010243 8.746484724838782 -1.2594005427868382e-09 -3.092349329981959 -4.373242361692273 7.574677966362526" Properties=species:S:1:pos:R:3:spacegroup_kinds:I:1:forces:R:3 spacegroup="P 1" unit_cell=conventional occupancy="_JSON {\"0\": {\"In\": 1}, \"1\": {\"In\": 1}, \"2\": {\"In\": 1}, \"3\": {\"In\": 1}, \"4\": {\"In\": 1}, \"5\": {\"In\": 1}, \"6\": {\"In\": 1}, \"7\": {\"In\": 1}, \"8\": {\"In\": 1}, \"9\": {\"In\": 1}, \"10\": {\"In\": 1}, \"11\": {\"In\": 1}, \"12\": {\"In\": 1}, \"13\": {\"In\": 1}, \"14\": {\"In\": 1}, \"15\": {\"In\": 1}, \"16\": {\"O\": 1}, \"17\": {\"O\": 1}, \"18\": {\"O\": 1}, \"19\": {\"O\": 1}, \"20\": {\"O\": 1}, \"21\": {\"O\": 1}, \"22\": {\"O\": 1}, \"23\": {\"O\": 1}, \"24\": {\"O\": 1}, \"25\": {\"O\": 1}, \"26\": {\"O\": 1}, \"27\": {\"O\": 1}, \"28\": {\"O\": 1}, \"29\": {\"O\": 1}, \"30\": {\"O\": 1}, \"31\": {\"O\": 1}, \"32\": {\"O\": 1}, \"33\": {\"O\": 1}, \"34\": {\"O\": 1}, \"35\": {\"O\": 1}, \"36\": {\"O\": 1}, \"37\": {\"O\": 1}, \"38\": {\"O\": 1}, \"39\": {\"O\": 1}}" n_minim_iter=4 energy=-45149.7454356943 stress="0.05858359790106049 -1.457122031698053e-13 -1.256210379431479e-13 -1.457122031698053e-13 0.05858359790021231 -6.931564900281692e-15 -1.256210379431479e-13 -6.931564900281692e-15 0.05858359790108798" free_energy=-45149.7454356943 pbc="T T T"
In      -4.39019399       3.10433594       5.98514937        0      -0.01558803       0.01102240      -0.01909136
In       7.48254332       1.26890642       1.58952859        1       0.01558803      -0.01102240       0.01909136
In       1.29784466      -0.91771476       5.37686757        2       0.01558803      -0.01102240       0.01909136
In      -1.54617467      -2.18662118       3.78733898        3       0.00000000       0.00000000       0.00000000
In      -1.29784466       4.19764653       3.48319808        4      -0.01558803       0.01102240       0.01909136
In       4.88685400      -2.92874011       5.68100847        5      -0.01558803      -0.02204481       0.00000000
In      -1.29784466       1.44450226       5.68100847        6      -0.01558803      -0.02204481       0.00000000
In      -1.79450467       7.30198247       1.89366949        7       0.01558803       0.02204481      -0.00000000
In       4.39019399       0.17559583       4.09147988        8       0.01558803      -0.01102240      -0.01909136
In      -1.54617467       4.37324236      -0.00000000        9      -0.00000000       0.00000000       0.00000000
In       4.39019399       6.73545938       0.30414090       10       0.01558803      -0.01102240      -0.01909136
In      -1.29784466      -2.36221701       7.27053706       11      -0.01558803       0.01102240       0.01909136
In       4.39019399       2.92874011       1.89366949       12       0.01558803       0.02204481      -0.00000000
In       1.79450467       5.29095712       2.19781039       13      -0.01558803       0.01102240      -0.01909136
In       4.63852399       0.00000000      -0.00000000       14       0.00000000      -0.00000000      -0.00000000
In       1.54617466       2.18662118       3.78733898       15       0.00000000      -0.00000000      -0.00000000
O        0.97410777       4.37982104       4.10172992       16       0.01596916      -0.00202783       0.02517430
O       -2.11824156       3.54891298       5.51811570       17       0.01596916       0.02281550      -0.01083100
O       -0.44628018       2.36665774      -0.00883613       18       0.02492186       0.01648499       0.00013377
O       -0.97410777      -0.81775071       2.04516766       19      -0.01596916       0.02078767       0.01434330
O        4.05202776       5.18589153       2.05400379       20       0.01618761      -0.02071044       0.01420953
O        2.13267090       3.00074749       1.73077672       21      -0.01618761      -0.02266103      -0.01083100
O        2.13267090       6.55838641       0.32322707       22      -0.01618761       0.00195060       0.02504053
O       -2.38006638       6.19173462       3.77850285       23      -0.00723491      -0.02899155       0.00013377
O        3.53862950       2.00658462       7.58351409       24      -0.02492186      -0.01648499      -0.00013377
O        5.47241570      -1.81849225       3.79617511       25       0.00723491       0.02899155      -0.00013377
O        6.63097883       3.36229774       1.73333519       26      -0.02492186       0.00835834      -0.01420953
O        3.80463228       2.36303334       4.11056605       27      -0.00723491       0.01461162       0.02504053
O        0.71228295       4.56495914       7.26028702       28      -0.00723491       0.01437992      -0.02517430
O        2.38006637      -0.19171678       0.31439094       29       0.00723491      -0.01437992       0.02517430
O       -3.53862951       1.01094463       5.84134277       30       0.02492186      -0.00835834       0.01420953
O        5.21059089       0.82432939       2.05656226       31      -0.01596916      -0.02281550       0.01083100
O        0.95967843       1.37249488       5.84390124       32       0.01618761       0.02266103       0.01083100
O        3.53862950      -0.99563999       5.83250664       33      -0.02492186       0.00812664       0.01434330
O        2.11824156      -0.00657867       3.47294804       34      -0.01596916       0.00202783      -0.02517430
O        0.95967843      -2.18514404       7.25145089       35       0.01618761      -0.00195060      -0.02504053
O       -0.71228296       2.01020903       3.46411191       36       0.00723491      -0.01461162      -0.02504053
O       -0.95967843      -0.81264917       5.52067417       37      -0.01618761       0.02071044      -0.01420953
O       -0.44628018       5.36888236       1.74217132       38       0.02492186      -0.00812664      -0.01434330
O        4.06645710       5.19099308       5.52951030       39       0.01596916      -0.02078767      -0.01434330
40
Lattice="9.27704799097416 7.271093751018465e-10 4.1397179292159035e-15 -3.0923493310102423 8.746484724838783 -1.2594005427868382e-09 -3.0923493299819587 -4.373242361692274 7.574677966362526" Properties=species:S:1:pos:R:3:spacegroup_kinds:I:1:forces:R:3 spacegroup="P 1" unit_cell=conventional occupancy="_JSON {\"0\": {\"In\": 1}, \"1\": {\"In\": 1}, \"2\": {\"In\": 1}, \"3\": {\"In\": 1}, \"4\": {\"In\": 1}, \"5\": {\"In\": 1}, \"6\": {\"In\": 1}, \"7\": {\"In\": 1}, \"8\": {\"In\": 1}, \"9\": {\"In\": 1}, \"10\": {\"In\": 1}, \"11\": {\"In\": 1}, \"12\": {\"In\": 1}, \"13\": {\"In\": 1}, \"14\": {\"In\": 1}, \"15\": {\"In\": 1}, \"16\": {\"O\": 1}, \"17\": {\"O\": 1}, \"18\": {\"O\": 1}, \"19\": {\"O\": 1}, \"20\": {\"O\": 1}, \"21\": {\"O\": 1}, \"22\": {\"O\": 1}, \"23\": {\"O\": 1}, \"24\": {\"O\": 1}, \"25\": {\"O\": 1}, \"26\": {\"O\": 1}, \"27\": {\"O\": 1}, \"28\": {\"O\": 1}, \"29\": {\"O\": 1}, \"30\": {\"O\": 1}, \"31\": {\"O\": 1}, \"32\": {\"O\": 1}, \"33\": {\"O\": 1}, \"34\": {\"O\": 1}, \"35\": {\"O\": 1}, \"36\": {\"O\": 1}, \"37\": {\"O\": 1}, \"38\": {\"O\": 1}, \"39\": {\"O\": 1}}" n_minim_iter=5 energy=-45149.747427992304 stress="0.058818135145907405 1.3782837393791082e-13 -3.1705963129327694e-13 1.3782837393791082e-13 0.05881813514558969 -3.395631814298198e-13 -3.1705963129327694e-13 -3.395631814298198e-13 0.05881813514589552" free_energy=-45149.747427992304 pbc="T T T"
In      -4.39055933       3.10459428       5.98470192        0      -0.00634171       0.00448426      -0.00776697
In       7.48290866       1.26864809       1.58997604        1       0.00634171      -0.00448426       0.00776697
In       1.29821000      -0.91797309       5.37731502        2       0.00634171      -0.00448426       0.00776697
In      -1.54617467      -2.18662118       3.78733898        3       0.00000000       0.00000000       0.00000000
In      -1.29821000       4.19790487       3.48364553        4      -0.00634171       0.00448426       0.00776697
In       4.88648866      -2.92925678       5.68100847        5      -0.00634171      -0.00896853       0.00000000
In      -1.29821000       1.44398558       5.68100847        6      -0.00634171      -0.00896853       0.00000000
In      -1.79413933       7.30249915       1.89366949        7       0.00634171       0.00896853      -0.00000000
In       4.39055933       0.17533750       4.09103243        8       0.00634171      -0.00448426      -0.00776697
In      -1.54617467       4.37324236      -0.00000000        9      -0.00000000      -0.00000000       0.00000000
In       4.39055933       6.73520104       0.30369345       10       0.00634171      -0.00448426      -0.00776697
In      -1.29821000      -2.36195867       7.27098451       11      -0.00634171       0.00448426       0.00776697
In       4.39055933       2.92925679       1.89366949       12       0.00634171       0.00896853       0.00000000
In       1.79413933       5.29121546       2.19736294       13      -0.00634171       0.00448426      -0.00776697
In       4.63852399       0.00000000      -0.00000000       14      -0.00000000       0.00000000       0.00000000
In       1.54617466       2.18662118       3.78733898       15      -0.00000000      -0.00000000      -0.00000000
O        0.97869636       4.38021083       4.10511646       16       0.00503442      -0.00446169      -0.00751966
O       -2.11365297       3.55165092       5.51608486       17       0.00503442      -0.00428137       0.00762377
O       -0.44180180       2.36947361      -0.01100195       18      -0.00656490       0.00392059      -0.00658244
O       -0.97869636      -0.81462298       2.04652336       19      -0.00503442      -0.00874307       0.00010411
O        4.05307958       5.18151337       2.05752531       20      -0.00571466       0.00494269       0.00668655
O        2.13161907       2.99550867       1.72874588       21       0.00571466      -0.00331938       0.00762377
O        2.13161907       6.55924706       0.32877943       22       0.00571466       0.00826207      -0.00093722
O       -2.38122841       6.18657373       3.77633703       23      -0.00588467       0.00488259      -0.00658244
O        3.53415112       2.00376875       7.58567991       24       0.00656490      -0.00392059       0.00658244
O        5.47357774      -1.81333137       3.79834093       25       0.00588467      -0.00488259       0.00658244
O        6.62650045       3.36183002       1.72981366       26       0.00656490      -0.00374027      -0.00668655
O        3.80347025       2.36373812       4.11611842       27      -0.00588467      -0.00814185      -0.00093722
O        0.71112092       4.56941524       7.25690048       28      -0.00588467       0.00325927       0.00751966
O        2.38122841      -0.19617287       0.31777748       29       0.00588467      -0.00325927      -0.00751966
O       -3.53415113       1.01141235       5.84486430       30      -0.00656490       0.00374027       0.00668655
O        5.20600230       0.82159145       2.05859310       31      -0.00503442       0.00428137      -0.00762377
O        0.96073025       1.37773369       5.84593208       32      -0.00571466       0.00331938      -0.00762377
O        3.53415112      -0.99235640       5.83386235       33       0.00656490       0.00766086       0.00010411
O        2.11365297      -0.00696846       3.46956150       34      -0.00503442       0.00446169       0.00751966
O        0.96073025      -2.18600469       7.24589853       35      -0.00571466      -0.00826207       0.00093722
O       -0.71112092       2.00950425       3.45855954       36       0.00588467       0.00814185       0.00093722
O       -0.96073026      -0.80827100       5.51715265       37       0.00571466      -0.00494269      -0.00668655
O       -0.44180180       5.36559877       1.74081561       38      -0.00656490      -0.00766086      -0.00010411
O        4.07104569       5.18786535       5.52815460       39       0.00503442       0.00874307      -0.00010411
40