40
Lattice="9.478785840334869 7.429186256672553e-10 -5.2190169055354755e-15 -3.159595280812053 8.936684993240114 -1.2867917067614754e-09 -3.159595279761404 -4.468342495877121 7.73939623062296" Properties=species:S:1:pos:R:3:spacegroup_kinds:I:1:forces:R:3 spacegroup="P 1" unit_cell=conventional occupancy="_JSON {\"0\": {\"In\": 1}, \"1\": {\"In\": 1}, \"2\": {\"In\": 1}, \"3\": {\"In\": 1}, \"4\": {\"In\": 1}, \"5\": {\"In\": 1}, \"6\": {\"In\": 1}, \"7\": {\"In\": 1}, \"8\": {\"In\": 1}, \"9\": {\"In\": 1}, \"10\": {\"In\": 1}, \"11\": {\"In\": 1}, \"12\": {\"In\": 1}, \"13\": {\"In\": 1}, \"14\": {\"In\": 1}, \"15\": {\"In\": 1}, \"16\": {\"O\": 1}, \"17\": {\"O\": 1}, \"18\": {\"O\": 1}, \"19\": {\"O\": 1}, \"20\": {\"O\": 1}, \"21\": {\"O\": 1}, \"22\": {\"O\": 1}, \"23\": {\"O\": 1}, \"24\": {\"O\": 1}, \"25\": {\"O\": 1}, \"26\": {\"O\": 1}, \"27\": {\"O\": 1}, \"28\": {\"O\": 1}, \"29\": {\"O\": 1}, \"30\": {\"O\": 1}, \"31\": {\"O\": 1}, \"32\": {\"O\": 1}, \"33\": {\"O\": 1}, \"34\": {\"O\": 1}, \"35\": {\"O\": 1}, \"36\": {\"O\": 1}, \"37\": {\"O\": 1}, \"38\": {\"O\": 1}, \"39\": {\"O\": 1}}" n_minim_iter=7 energy=-45147.839141043674 stress="0.08041490321820463 1.610241705659382e-13 -1.3446209993921802e-13 1.610241705659382e-13 0.08041490321832699 2.2423489769311244e-13 -1.3446209993921802e-13 2.2423489769311244e-13 0.0804149032180682" free_energy=-45147.839141043674 pbc="T T T"
In      -4.46383229       3.15640608       6.14203865        0      -0.00181695       0.00128478      -0.00222530
In       7.62342756       1.31193642       1.59735758        1       0.00181695      -0.00128478       0.00222530
In       1.30423700      -0.92223483       5.46705569        2       0.00181695      -0.00128478       0.00222530
In      -1.57979764      -2.23417125       3.86969811        3       0.00000000       0.00000000      -0.00000000
In      -1.30423701       4.27349170       3.53220664        4      -0.00181695       0.00128478       0.00222530
In       5.01495356      -2.96155528       5.80454717        5      -0.00181695      -0.00256956       0.00000000
In      -1.30423700       1.50678722       5.80454717        6      -0.00181695      -0.00256956       0.00000000
In      -1.85535828       7.42989778       1.93484905        7       0.00181695       0.00256956      -0.00000000
In       4.46383228       0.19485080       4.20718959        8       0.00181695      -0.00128478      -0.00222530
In      -1.57979764       4.46834250      -0.00000000        9      -0.00000000      -0.00000000       0.00000000
In       4.46383228       6.89736454       0.33749147       10       0.00181695      -0.00128478      -0.00222530
In      -1.30423700      -2.42902204       7.40190475       11      -0.00181695       0.00128478       0.00222530
In       4.46383228       2.96155528       1.93484905       12       0.00181695       0.00256956       0.00000000
In       1.85535827       5.39057733       2.27234053       13      -0.00181695       0.00128478      -0.00222530
In       4.73939292       0.00000000      -0.00000000       14      -0.00000000      -0.00000000       0.00000000
In       1.57979764       2.23417125       3.86969811       15       0.00000000       0.00000000       0.00000000
O        1.03189696       4.47690945       4.18492518       16       0.00001152      -0.00549537       0.00074200
O       -2.12769832       3.61996805       5.63951444       17       0.00001152       0.00339027       0.00438813
O       -0.44781245       2.43210936      -0.04245019       18      -0.00198087       0.00479910       0.00194797
O       -1.03189697      -0.83980750       2.08504339       19      -0.00001152      -0.00210510       0.00513013
O        4.12217137       5.28364137       2.12749358       20       0.00319254       0.00322976       0.00318216
O        2.19701918       3.03352845       1.76981632       21      -0.00319254      -0.00114096       0.00438813
O        2.19701918       6.71845542       0.35767725       22      -0.00319254       0.00437071      -0.00120597
O       -2.44228551       6.31401226       3.82724792       23      -0.00518493       0.00026788       0.00194797
O        3.60740773       2.03623314       7.78184642       24       0.00198087      -0.00479910      -0.00194797
O        5.60188079      -1.84566975       3.91214830       25       0.00518493      -0.00026788      -0.00194797
O        6.76700301       3.41346299       1.74220453       26       0.00198087       0.00408654      -0.00318216
O        3.87690505       2.39165905       4.22737537       27      -0.00518493       0.00155305      -0.00120597
O        0.71730977       4.69935619       7.42416916       28      -0.00518493      -0.00182093      -0.00074200
O        2.44228551      -0.23101369       0.31522706       29       0.00518493       0.00182093       0.00074200
O       -3.60740773       1.05487952       5.99719169       30      -0.00198087      -0.00408654       0.00318216
O        5.28729359       0.84837446       2.09988179       31      -0.00001152      -0.00339027      -0.00438813
O        0.96257609       1.43481406       5.96957990       32       0.00319254       0.00114096      -0.00438813
O        3.60740773      -0.98135362       5.95474150       33       0.00198087       0.00071256       0.00513013
O        2.12769831      -0.00856695       3.55447105       34      -0.00001152       0.00549537      -0.00074200
O        0.96257609      -2.25011292       7.38171897       35       0.00319254      -0.00437071       0.00120597
O       -0.71730977       2.07668345       3.51202086       36       0.00518493      -0.00155305       0.00120597
O       -0.96257610      -0.81529887       5.61190265       37      -0.00319254      -0.00322976      -0.00318216
O       -0.44781245       5.44969613       1.78465472       38      -0.00198087      -0.00071256      -0.00513013
O        4.19149224       5.30815000       5.65435283       39       0.00001152       0.00210510      -0.00513013
