40
Lattice="8.531557329248818 6.686780769726895e-10 -7.98116950413307e-15 -2.843852443713376 8.04362938856861 -1.158193553509433e-09 -2.843852442767718 -4.021814693615613 6.965987389899647" Properties=species:S:1:pos:R:3:spacegroup_kinds:I:1:forces:R:3 spacegroup="P 1" unit_cell=conventional occupancy="_JSON {\"0\": {\"In\": 1}, \"1\": {\"In\": 1}, \"2\": {\"In\": 1}, \"3\": {\"In\": 1}, \"4\": {\"In\": 1}, \"5\": {\"In\": 1}, \"6\": {\"In\": 1}, \"7\": {\"In\": 1}, \"8\": {\"In\": 1}, \"9\": {\"In\": 1}, \"10\": {\"In\": 1}, \"11\": {\"In\": 1}, \"12\": {\"In\": 1}, \"13\": {\"In\": 1}, \"14\": {\"In\": 1}, \"15\": {\"In\": 1}, \"16\": {\"O\": 1}, \"17\": {\"O\": 1}, \"18\": {\"O\": 1}, \"19\": {\"O\": 1}, \"20\": {\"O\": 1}, \"21\": {\"O\": 1}, \"22\": {\"O\": 1}, \"23\": {\"O\": 1}, \"24\": {\"O\": 1}, \"25\": {\"O\": 1}, \"26\": {\"O\": 1}, \"27\": {\"O\": 1}, \"28\": {\"O\": 1}, \"29\": {\"O\": 1}, \"30\": {\"O\": 1}, \"31\": {\"O\": 1}, \"32\": {\"O\": 1}, \"33\": {\"O\": 1}, \"34\": {\"O\": 1}, \"35\": {\"O\": 1}, \"36\": {\"O\": 1}, \"37\": {\"O\": 1}, \"38\": {\"O\": 1}, \"39\": {\"O\": 1}}" n_minim_iter=3 energy=-45148.623854159145 stress="-0.120751759092736 -5.252852857223785e-13 4.0845004085297304e-15 -5.252852857223785e-13 -0.12075175909123631 -1.1667871144839288e-13 4.0845004085297304e-15 -1.1667871144839288e-13 -0.12075175909262685" free_energy=-45148.623854159145 pbc="T T T"
In      -4.07056108       2.87832135       5.46358227        0       0.00136503      -0.00096522       0.00167181
In       6.91441352       1.14349335       1.50240511        1      -0.00136503       0.00096522      -0.00167181
In       1.22670864      -0.86741400       4.98539881        2      -0.00136503       0.00096522      -0.00167181
In      -1.42192622      -2.01090735       3.48299369        3      -0.00000000       0.00000000      -0.00000000
In      -1.22670864       3.88377502       3.24390196        4       0.00136503      -0.00096522      -0.00167181
In       4.46099625      -2.74028167       5.22449054        5       0.00136503       0.00193044      -0.00000000
In      -1.22670864       1.28153303       5.22449054        6       0.00136503       0.00193044       0.00000000
In      -1.61714381       6.76209636       1.74149684        7      -0.00136503      -0.00193044      -0.00000000
In       4.07056108       0.13803968       3.72208543        8      -0.00136503       0.00096522       0.00167181
In      -1.42192622       4.02181470      -0.00000000        9      -0.00000000      -0.00000000      -0.00000000
In       4.07056108       6.17076172       0.23909173       10      -0.00136503       0.00096522       0.00167181
In      -1.22670864      -2.14894702       6.72689565       11       0.00136503      -0.00096522      -0.00167181
In       4.07056108       2.74028167       1.74149684       12      -0.00136503      -0.00193044      -0.00000000
In       1.61714380       4.88922869       1.98058858       13       0.00136503      -0.00096522       0.00167181
In       4.26577866       0.00000000      -0.00000000       14       0.00000000      -0.00000000       0.00000000
In       1.42192622       2.01090735       3.48299369       15       0.00000000       0.00000000      -0.00000000
O        0.82623047       4.01768604       3.80909330       16      -0.00255501       0.00706671       0.00019567
O       -2.01762198       3.30083589       5.06501625       17      -0.00255501      -0.00336390      -0.00621779
O       -0.40822771       2.16282229       0.07012624       18       0.00263938      -0.00703689       0.00014401
O       -0.82623047      -0.72510745       1.90812217       19       0.00255501       0.00370281      -0.00602212
O        3.78459858       4.78740956       1.83799593       20      -0.00231985      -0.00361967      -0.00616613
O        1.90310630       2.81286096       1.58202256       21       0.00231985       0.00353019      -0.00621779
O        1.90310630       5.99636329       0.25597337       22       0.00231985      -0.00714986       0.00005166
O       -2.17520432       5.69666205       3.55311993       23       0.00751423      -0.00014280       0.00014401
O        3.25208015       1.85899240       6.89586115       24      -0.00263938       0.00703689      -0.00014401
O        5.01905676      -1.67484736       3.41286745       25      -0.00751423       0.00014280      -0.00014401
O        6.09593259       3.15304960       1.64499776       26      -0.00263938      -0.00339373       0.00616613
O        3.51250057       2.23966845       3.73896706       27       0.00751423       0.00019611       0.00005166
O        0.66864813       4.12911359       6.63988778       28       0.00751423      -0.00005332      -0.00019567
O        2.17520431      -0.10729889       0.32609960       29      -0.00751423       0.00005331       0.00019567
O       -3.25208015       0.86876510       5.32098962       30       0.00263938       0.00339373      -0.00616613
O        4.86147442       0.72097881       1.90097113       31       0.00255501       0.00336390       0.00621779
O        0.94074614       1.20895374       5.38396483       32      -0.00231985      -0.00353019       0.00621779
O        3.25208015      -0.99022730       5.39111586       33      -0.00263938      -0.00364316      -0.00602212
O        2.01762197       0.00412865       3.15689409       34       0.00255501      -0.00706671      -0.00019567
O        0.94074614      -1.97454859       6.71001402       35      -0.00231985       0.00714986      -0.00005166
O       -0.66864813       1.78214625       3.22702032       36      -0.00751423      -0.00019611      -0.00005166
O       -0.94074614      -0.76559486       5.12799146       37       0.00231985       0.00361967       0.00616613
O       -0.40822771       5.01204200       1.57487152       38       0.00263938       0.00364316       0.00602212
O        3.67008291       4.74692215       5.05786522       39      -0.00255501      -0.00370281       0.00602212
