40
Lattice="9.608648358949598 7.530953265832969e-10 -1.552533089856788e-15 -3.2028827870265597 9.059120549949306 -1.3044194556271606e-09 -3.2028827859615197 -4.529560274221541 7.8454285330713684" Properties=species:S:1:pos:R:3:spacegroup_kinds:I:1:forces:R:3 spacegroup="P 1" unit_cell=conventional occupancy="_JSON {\"0\": {\"In\": 1}, \"1\": {\"In\": 1}, \"2\": {\"In\": 1}, \"3\": {\"In\": 1}, \"4\": {\"In\": 1}, \"5\": {\"In\": 1}, \"6\": {\"In\": 1}, \"7\": {\"In\": 1}, \"8\": {\"In\": 1}, \"9\": {\"In\": 1}, \"10\": {\"In\": 1}, \"11\": {\"In\": 1}, \"12\": {\"In\": 1}, \"13\": {\"In\": 1}, \"14\": {\"In\": 1}, \"15\": {\"In\": 1}, \"16\": {\"O\": 1}, \"17\": {\"O\": 1}, \"18\": {\"O\": 1}, \"19\": {\"O\": 1}, \"20\": {\"O\": 1}, \"21\": {\"O\": 1}, \"22\": {\"O\": 1}, \"23\": {\"O\": 1}, \"24\": {\"O\": 1}, \"25\": {\"O\": 1}, \"26\": {\"O\": 1}, \"27\": {\"O\": 1}, \"28\": {\"O\": 1}, \"29\": {\"O\": 1}, \"30\": {\"O\": 1}, \"31\": {\"O\": 1}, \"32\": {\"O\": 1}, \"33\": {\"O\": 1}, \"34\": {\"O\": 1}, \"35\": {\"O\": 1}, \"36\": {\"O\": 1}, \"37\": {\"O\": 1}, \"38\": {\"O\": 1}, \"39\": {\"O\": 1}}" n_minim_iter=4 energy=-45145.354374995106 stress="0.10254972524504616 -1.3675448765036887e-13 -3.655676326131785e-14 -1.3675448765036887e-13 0.10254972524442066 -4.421848406765475e-13 -3.655676326131785e-14 -4.421848406765475e-13 0.1025497252453071" free_energy=-45145.354374995106 pbc="T T T"
In      -4.49753015       3.18023407       6.25981582        0       0.00208654      -0.00147541       0.00255548
In       7.70041293       1.34932621       1.58561271        1      -0.00208654       0.00147541      -0.00255548
In       1.29464736      -0.91545392       5.50832698        2      -0.00208654       0.00147541      -0.00255548
In      -1.60144139      -2.26478014       3.92271426        3      -0.00000000      -0.00000000      -0.00000000
In      -1.29464736       4.31262413       3.54696984        4       0.00208654      -0.00147541      -0.00255548
In       5.11111821      -2.96329792       5.88407140        5       0.00208654       0.00295082      -0.00000000
In      -1.29464736       1.56626236       5.88407140        6       0.00208654       0.00295082       0.00000000
In      -1.90823543       7.49285820       1.96135713        7      -0.00208654      -0.00295082      -0.00000000
In       4.49753014       0.21693614       4.29845868        8      -0.00208654       0.00147541       0.00255548
In      -1.60144140       4.52956028      -0.00000000        9      -0.00000000       0.00000000      -0.00000000
In       4.49753014       7.01127656       0.37574442       10      -0.00208654       0.00147541       0.00255548
In      -1.29464736      -2.48171628       7.46968411       11       0.00208654      -0.00147541      -0.00255548
In       4.49753014       2.96329792       1.96135713       12      -0.00208654      -0.00295082      -0.00000000
In       1.90823543       5.44501420       2.33710155       13       0.00208654      -0.00147541       0.00255548
In       4.80432418       0.00000000      -0.00000000       14       0.00000000       0.00000000       0.00000000
In       1.60144139       2.26478014       3.92271426       15       0.00000000      -0.00000000       0.00000000
O        1.06491763       4.53299334       4.23386494       16       0.00621651       0.00723818       0.00254653
O       -2.13796516       3.66491807       5.72552294       17       0.00621651      -0.00141373      -0.00754171
O       -0.45698323       2.47628435      -0.06113159       18       0.00756351      -0.00236621      -0.00589198
O       -1.06491763      -0.86120914       2.11395936       19      -0.00621651       0.00582444      -0.00499518
O        4.16797294       5.35547508       2.17509095       20      -0.00340505      -0.00922618       0.00089680
O        2.23779262       3.05883366       1.80280867       21       0.00340505      -0.00538974      -0.00754171
O        2.23779262       6.82620170       0.37228227       22       0.00340505      -0.00383644       0.00843850
O       -2.48699102       6.39976021       3.86158267       23       0.00475205      -0.00634221      -0.00589198
O        3.65986601       2.05327593       7.90656012       24      -0.00756351       0.00236621       0.00589198
O        5.68987380      -1.87019994       3.98384586       25      -0.00475205       0.00634221       0.00589198
O        6.86274880       3.44998080       1.74762331       26      -0.00756351      -0.00628571      -0.00089680
O        3.91877456       2.40912873       4.29499654       27       0.00475205      -0.00193150       0.00843850
O        0.71589177       4.77979189       7.53427785       28       0.00475205       0.00827371      -0.00254653
O        2.48699101      -0.25023161       0.31115068       29      -0.00475205      -0.00827371       0.00254653
O       -3.65986601       1.07957948       6.09780521       30       0.00756351       0.00628571       0.00089680
O        5.34084794       0.86464221       2.11990559       31      -0.00621651       0.00141373       0.00754171
O        0.96509016       1.47072662       6.04261985       32      -0.00340505       0.00538974       0.00754171
O        3.65986601      -0.97369645       6.03667362       33      -0.00756351       0.00391950      -0.00499518
O        2.13796515      -0.00343306       3.61156358       34      -0.00621651      -0.00723818      -0.00254653
O        0.96509016      -2.29664142       7.47314626       35      -0.00340505       0.00383644      -0.00843850
O       -0.71589177       2.12043155       3.55043199       36      -0.00475205       0.00193150      -0.00843850
O       -0.96509016      -0.82591480       5.67033758       37       0.00340505       0.00922618      -0.00089680
O       -0.45698323       5.50325673       1.80875491       38       0.00756351      -0.00391950       0.00499518
O        4.26780041       5.39076942       5.73146917       39       0.00621651      -0.00582444       0.00499518
