40
Lattice="8.104247895336126 6.351850621521349e-10 9.065657452824783e-15 -2.7014159657109005 7.640758190733582 -1.1001906052109141e-09 -2.701415964812622 -3.8203790947315923 6.617090698082765" Properties=species:S:1:pos:R:3:spacegroup_kinds:I:1:forces:R:3 spacegroup="P 1" unit_cell=conventional occupancy="_JSON {\"0\": {\"In\": 1}, \"1\": {\"In\": 1}, \"2\": {\"In\": 1}, \"3\": {\"In\": 1}, \"4\": {\"In\": 1}, \"5\": {\"In\": 1}, \"6\": {\"In\": 1}, \"7\": {\"In\": 1}, \"8\": {\"In\": 1}, \"9\": {\"In\": 1}, \"10\": {\"In\": 1}, \"11\": {\"In\": 1}, \"12\": {\"In\": 1}, \"13\": {\"In\": 1}, \"14\": {\"In\": 1}, \"15\": {\"In\": 1}, \"16\": {\"O\": 1}, \"17\": {\"O\": 1}, \"18\": {\"O\": 1}, \"19\": {\"O\": 1}, \"20\": {\"O\": 1}, \"21\": {\"O\": 1}, \"22\": {\"O\": 1}, \"23\": {\"O\": 1}, \"24\": {\"O\": 1}, \"25\": {\"O\": 1}, \"26\": {\"O\": 1}, \"27\": {\"O\": 1}, \"28\": {\"O\": 1}, \"29\": {\"O\": 1}, \"30\": {\"O\": 1}, \"31\": {\"O\": 1}, \"32\": {\"O\": 1}, \"33\": {\"O\": 1}, \"34\": {\"O\": 1}, \"35\": {\"O\": 1}, \"36\": {\"O\": 1}, \"37\": {\"O\": 1}, \"38\": {\"O\": 1}, \"39\": {\"O\": 1}}" n_minim_iter=6 energy=-45131.72747455359 stress="-0.4064818600693283 1.574150246716223e-13 2.1225950275408683e-13 1.574150246716223e-13 -0.4064818600693432 -7.752073817946914e-14 2.1225950275408683e-13 -7.752073817946914e-14 -0.40648186007037435" free_energy=-45131.72747455359 pbc="T T T"
In      -3.84558141       2.71923670       5.21577993        0      -0.00528070       0.00373402      -0.00646751
In       6.54699738       1.10114240       1.40131076        1       0.00528070      -0.00373402       0.00646751
In       1.14416545      -0.80904714       4.70985611        2       0.00528070      -0.00373402       0.00646751
In      -1.35070798      -1.91018955       3.30854535        3       0.00000000      -0.00000000       0.00000000
In      -1.14416545       3.67433147       3.05558344        4      -0.00528070       0.00373402       0.00646751
In       4.25866648      -2.57318907       4.96281802        5      -0.00528070      -0.00746804       0.00000000
In      -1.14416545       1.24719003       4.96281802        6      -0.00528070      -0.00746804      -0.00000000
In      -1.55725052       6.39356816       1.65427267        7       0.00528070       0.00746804      -0.00000000
In       3.84558141       0.14604763       3.56150726        8       0.00528070      -0.00373402      -0.00646751
In      -1.35070798       3.82037910      -0.00000000        9       0.00000000       0.00000000       0.00000000
In       3.84558141       5.87661627       0.25296191       10       0.00528070      -0.00373402      -0.00646751
In      -1.14416545      -2.05623717       6.36412879       11      -0.00528070       0.00373402       0.00646751
In       3.84558141       2.57318907       1.65427267       12       0.00528070       0.00746804       0.00000000
In       1.55725052       4.62942624       1.90723458       13      -0.00528070       0.00373402      -0.00646751
In       4.05212395       0.00000000      -0.00000000       14      -0.00000000       0.00000000      -0.00000000
In       1.35070798       1.91018955       3.30854535       15      -0.00000000       0.00000000      -0.00000000
O        0.76552452       3.80877492       3.66683430       16       0.00461194       0.00118360       0.00641426
O       -1.93589145       3.18137375       4.79372306       17       0.00461194       0.00496311      -0.00423216
O       -0.35822571       2.06579560       0.10887039       18       0.00733249       0.00303939      -0.00090018
O       -0.76552452      -0.65060952       1.84346666       19      -0.00461194       0.00614671       0.00218210
O        3.64472508       4.53384497       1.73459627       20       0.00314195      -0.00666643       0.00308228
O        1.75810685       2.67490759       1.48517771       21      -0.00314195      -0.00600255      -0.00423216
O        1.75810685       5.67931647       0.24941856       22      -0.00314195      -0.00066388       0.00731444
O       -2.06705934       5.37970854       3.41741573       23      -0.00042140      -0.00792627      -0.00090018
O        3.05964167       1.75458350       6.50822031       24      -0.00733249      -0.00303939       0.00090018
O        4.76847530      -1.55932945       3.19967496       25       0.00042140       0.00792627       0.00090018
O        5.76105763       3.03737187       1.57394907       26      -0.00733249       0.00074011      -0.00308228
O        3.33577259       2.17990412       3.55796391       27      -0.00042140       0.00318355       0.00731444
O        0.63435662       3.90152463       6.25880174       28      -0.00042140       0.00474271      -0.00641426
O        2.06705934      -0.08114553       0.35828895       29       0.00042140      -0.00474271       0.00641426
O       -3.05964167       0.78300723       5.04314162       30       0.00733249      -0.00074011       0.00308228
O        4.63730741       0.63900535       1.82336764       31      -0.00461194      -0.00496311       0.00423216
O        0.94330912       1.14547150       5.13191299       32       0.00314195       0.00600255       0.00423216
O        3.05964167      -0.97157627       5.15201201       33      -0.00733249       0.00229928       0.00218210
O        1.93589145       0.01160418       2.95025639       34      -0.00461194      -0.00118360      -0.00641426
O        0.94330912      -1.85893737       6.36767213       35       0.00314195       0.00066388      -0.00731444
O       -0.63435663       1.64047498       3.05912678       36       0.00042140      -0.00318355      -0.00731444
O       -0.94330912      -0.71346587       4.88249442       37      -0.00314195       0.00666643      -0.00308228
O       -0.35822571       4.79195537       1.46507868       38       0.00733249      -0.00229928      -0.00218210
O        3.46694048       4.47098862       4.77362403       39       0.00461194      -0.00614671      -0.00218210
