40
Lattice="9.207813709320972 7.216827203726298e-10 -1.4209545598250442e-15 -3.069271237120732 8.681210018110527 -1.2499962780770811e-09 -3.0692712361001186 -4.340605008333576 7.518148412105016" Properties=species:S:1:pos:R:3:spacegroup_kinds:I:1:forces:R:3 spacegroup="P 1" unit_cell=conventional occupancy="_JSON {\"0\": {\"In\": 1}, \"1\": {\"In\": 1}, \"2\": {\"In\": 1}, \"3\": {\"In\": 1}, \"4\": {\"In\": 1}, \"5\": {\"In\": 1}, \"6\": {\"In\": 1}, \"7\": {\"In\": 1}, \"8\": {\"In\": 1}, \"9\": {\"In\": 1}, \"10\": {\"In\": 1}, \"11\": {\"In\": 1}, \"12\": {\"In\": 1}, \"13\": {\"In\": 1}, \"14\": {\"In\": 1}, \"15\": {\"In\": 1}, \"16\": {\"O\": 1}, \"17\": {\"O\": 1}, \"18\": {\"O\": 1}, \"19\": {\"O\": 1}, \"20\": {\"O\": 1}, \"21\": {\"O\": 1}, \"22\": {\"O\": 1}, \"23\": {\"O\": 1}, \"24\": {\"O\": 1}, \"25\": {\"O\": 1}, \"26\": {\"O\": 1}, \"27\": {\"O\": 1}, \"28\": {\"O\": 1}, \"29\": {\"O\": 1}, \"30\": {\"O\": 1}, \"31\": {\"O\": 1}, \"32\": {\"O\": 1}, \"33\": {\"O\": 1}, \"34\": {\"O\": 1}, \"35\": {\"O\": 1}, \"36\": {\"O\": 1}, \"37\": {\"O\": 1}, \"38\": {\"O\": 1}, \"39\": {\"O\": 1}}" n_minim_iter=1 energy=-45150.45563456552 stress="0.04965714966096482 8.855775630751791e-14 -4.917141188289103e-14 8.855775630751791e-14 0.04965714966193039 -6.08374166189877e-14 -4.917141188289103e-14 -6.08374166189877e-14 0.04965714966123168" free_energy=-45150.45563456552 pbc="T T T"
In      -4.37642116       3.09459708       5.91722324        0       0.06147819      -0.04347164       0.07529510
In       7.44569240       1.24600793       1.60092516        1      -0.06147819       0.04347164      -0.07529510
In       1.30714992      -0.92429457       5.35999937        2      -0.06147819       0.04347164      -0.07529510
In      -1.53463562      -2.17030250       3.75907420        3      -0.00000000       0.00000000       0.00000000
In      -1.30714993       4.17974833       3.48046227        4       0.06147819      -0.04347164      -0.07529510
In       4.83139255      -2.93374040       5.63861131        5       0.06147819       0.08694329       0.00000000
In      -1.30714993       1.40686461       5.63861131        6       0.06147819       0.08694329       0.00000000
In      -1.76212131       7.27434542       1.87953710        7      -0.06147819      -0.08694329       0.00000000
In       4.37642116       0.16085668       4.03768614        8      -0.06147819       0.04347164       0.07529510
In      -1.53463562       4.34060501      -0.00000000        9      -0.00000000       0.00000000      -0.00000000
In       4.37642116       6.67176419       0.27861193       10      -0.06147819       0.04347164       0.07529510
In      -1.30714993      -2.33115918       7.23953647       11       0.06147819      -0.04347164      -0.07529510
In       4.37642116       2.93374041       1.87953710       12      -0.06147819      -0.08694329       0.00000000
In       1.76212131       5.26489959       2.15814904       13       0.06147819      -0.04347164       0.07529510
In       4.60390685       0.00000000      -0.00000000       14       0.00000000      -0.00000000       0.00000000
In       1.53463562       2.17030251       3.75907420       15       0.00000000      -0.00000000      -0.00000000
O        0.94288285       4.34558749       4.08213697       16       0.01965599      -0.00326708      -0.05046682
O       -2.12638839       3.53274309       5.47276497       17       0.01965599      -0.04207201       0.02806279
O       -0.44266772       2.34217278       0.01674481       18      -0.03619411      -0.00258003      -0.04033934
O       -0.94288285      -0.80287945       2.03675353       19      -0.01965599      -0.04533909      -0.02240404
O        4.03949825       5.15315208       2.02000872       20      -0.04621787       0.02204916       0.01793530
O        2.09904422       2.99749968       1.71369077       21       0.04621787      -0.00450784       0.02806279
O        2.09904422       6.49625742       0.30631795       22       0.04621787       0.02655701      -0.01012749
O       -2.35577759       6.14753439       3.77581902       23      -0.00963223       0.03498414      -0.04033934
O        3.51193896       1.99843223       7.50140359       24       0.03619411       0.00258003       0.04033934
O        5.42504882      -1.80692937       3.74232939       25       0.00963223      -0.03498414       0.04033934
O        6.58121019       3.35589033       1.73906548       26       0.03619411      -0.03622490      -0.01793530
O        3.78276489       2.36649051       4.06539216       27      -0.00963223      -0.05242696      -0.01012749
O        0.71349365       4.50779014       7.19508564       28      -0.00963223       0.01744282       0.05046682
O        2.35577758      -0.16718513       0.32306277       29       0.00963223      -0.01744282      -0.05046682
O       -3.51193896       0.98471468       5.77908293       30      -0.03619411       0.03622490       0.01793530
O        5.19565962       0.80786193       2.04538343       31      -0.01965599       0.04207201      -0.02806279
O        0.97022701       1.34310534       5.80445764       32      -0.04621787       0.00450784      -0.02806279
O        3.51193896      -1.01371755       5.79582774       33       0.03619411       0.03364488      -0.02240404
O        2.12638839      -0.00498247       3.43601144       34      -0.01965599       0.00326708       0.05046682
O        0.97022701      -2.15565240       7.21183046       35      -0.04621787      -0.02655701       0.01012749
O       -0.71349365       1.97411451       3.45275625       36       0.00963223       0.05242696       0.01012749
O       -0.97022702      -0.81254707       5.49813969       37       0.04621787      -0.02204916      -0.01793530
O       -0.44266773       5.35432256       1.72232067       38      -0.03619411      -0.03364488       0.02240404
O        4.01215408       5.14348446       5.48139487       39       0.01965599       0.04533909       0.02240404
40
Lattice="9.20781370932097 7.216827203726298e-10 -1.4209545598250507e-15 -3.069271237120732 8.681210018110525 -1.249996278077081e-09 -3.0692712361001186 -4.340605008333575 7.518148412105016" Properties=species:S:1:pos:R:3:spacegroup_kinds:I:1:forces:R:3 spacegroup="P 1" unit_cell=conventional occupancy="_JSON {\"0\": {\"In\": 1}, \"1\": {\"In\": 1}, \"2\": {\"In\": 1}, \"3\": {\"In\": 1}, \"4\": {\"In\": 1}, \"5\": {\"In\": 1}, \"6\": {\"In\": 1}, \"7\": {\"In\": 1}, \"8\": {\"In\": 1}, \"9\": {\"In\": 1}, \"10\": {\"In\": 1}, \"11\": {\"In\": 1}, \"12\": {\"In\": 1}, \"13\": {\"In\": 1}, \"14\": {\"In\": 1}, \"15\": {\"In\": 1}, \"16\": {\"O\": 1}, \"17\": {\"O\": 1}, \"18\": {\"O\": 1}, \"19\": {\"O\": 1}, \"20\": {\"O\": 1}, \"21\": {\"O\": 1}, \"22\": {\"O\": 1}, \"23\": {\"O\": 1}, \"24\": {\"O\": 1}, \"25\": {\"O\": 1}, \"26\": {\"O\": 1}, \"27\": {\"O\": 1}, \"28\": {\"O\": 1}, \"29\": {\"O\": 1}, \"30\": {\"O\": 1}, \"31\": {\"O\": 1}, \"32\": {\"O\": 1}, \"33\": {\"O\": 1}, \"34\": {\"O\": 1}, \"35\": {\"O\": 1}, \"36\": {\"O\": 1}, \"37\": {\"O\": 1}, \"38\": {\"O\": 1}, \"39\": {\"O\": 1}}" n_minim_iter=2 energy=-45150.465629156344 stress="0.04868260043047737 4.3117191782353355e-13 -3.91238279121484e-14 4.3117191782353355e-13 0.04868260043127679 -3.469718247787483e-13 -3.91238279121484e-14 -3.469718247787483e-13 0.04868260043131003" free_energy=-45150.465629156344 pbc="T T T"
In      -4.37202986       3.09149197       5.92260146        0       0.02441766      -0.01726590       0.02990541
In       7.44130110       1.24911305       1.59554694        1      -0.02441766       0.01726590      -0.02990541
In       1.30275862      -0.92118946       5.35462115        2      -0.02441766       0.01726590      -0.02990541
In      -1.53463562      -2.17030250       3.75907420        3       0.00000000      -0.00000000       0.00000000
In      -1.30275863       4.17664322       3.47508405        4       0.02441766      -0.01726590      -0.02990541
In       4.83578385      -2.92753017       5.63861131        5       0.02441766       0.03453179      -0.00000000
In      -1.30275863       1.41307484       5.63861131        6       0.02441766       0.03453179      -0.00000000
In      -1.76651261       7.26813518       1.87953710        7      -0.02441766      -0.03453179      -0.00000000
In       4.37202986       0.16396180       4.04306436        8      -0.02441766       0.01726590       0.02990541
In      -1.53463562       4.34060501      -0.00000000        9       0.00000000       0.00000000      -0.00000000
In       4.37202986       6.67486931       0.28399015       10      -0.02441766       0.01726590       0.02990541
In      -1.30275863      -2.33426430       7.23415825       11       0.02441766      -0.01726590      -0.02990541
In       4.37202986       2.92753017       1.87953710       12      -0.02441766      -0.03453179      -0.00000000
In       1.76651261       5.26179447       2.16352726       13       0.02441766      -0.01726590       0.02990541
In       4.60390685       0.00000000      -0.00000000       14      -0.00000000       0.00000000       0.00000000
In       1.53463562       2.17030251       3.75907420       15      -0.00000000      -0.00000000      -0.00000000
O        0.94428684       4.34535412       4.07853220       16       0.02513109       0.00662150      -0.00651904
O       -2.12498439       3.52973794       5.47476946       17       0.02513109      -0.00895640      -0.00247487
O       -0.44525302       2.34198850       0.01386343       18       0.00617566       0.00444711      -0.02569043
O       -0.94428685      -0.80611796       2.03515325       19      -0.02513109      -0.00233490      -0.00899390
O        4.03619697       5.15472703       2.02128981       20      -0.01682120      -0.01249747       0.01669653
O        2.10234550       2.99717769       1.71569525       21       0.01682120      -0.02070835      -0.00247487
O        2.10234550       6.49815435       0.30559456       22       0.01682120       0.00821088       0.01917139
O       -2.35646560       6.15003325       3.77293764       23      -0.00213422      -0.00730484      -0.02569043
O        3.51452425       1.99861652       7.50428498       24      -0.00617566      -0.00444711       0.02569043
O        5.42573684      -1.80942824       3.74521077       25       0.00213422       0.00730484       0.02569043
O        6.58379549       3.35330284       1.73778439       26      -0.00617566      -0.02002501      -0.01669653
O        3.78207687       2.36274572       4.06466876       27      -0.00213422      -0.01859614       0.01917139
O        0.71280563       4.50903606       7.19869041       28      -0.00213422       0.02590098       0.00651904
O        2.35646560      -0.16843104       0.31945799       29       0.00213422      -0.02590098      -0.00651904
O       -3.51452425       0.98730217       5.78036402       30       0.00617566       0.02002501       0.01669653
O        5.19425562       0.81086707       2.04337895       31      -0.02513109       0.00895640       0.00247487
O        0.96692574       1.34342732       5.80245316       32      -0.01682120       0.02070835       0.00247487
O        3.51452425      -1.01131434       5.79422745       33      -0.00617566       0.02447212      -0.00899390
O        2.12498439      -0.00474911       3.43961621       34      -0.02513109      -0.00662150       0.00651904
O        0.96692574      -2.15754933       7.21255385       35      -0.01682120      -0.00821088      -0.01917139
O       -0.71280564       1.97785929       3.45347964       36       0.00213422       0.01859614      -0.01917139
O       -0.96692574      -0.81412201       5.49685859       37       0.01682120       0.01249747      -0.01669653
O       -0.44525302       5.35191935       1.72392095       38       0.00617566      -0.02447212       0.00899390
O        4.01355808       5.14672297       5.48299516       39       0.02513109       0.00233490       0.00899390
40
Lattice="9.20781370932097 7.216827203726298e-10 -1.4209545598250554e-15 -3.069271237120732 8.681210018110525 -1.249996278077081e-09 -3.0692712361001186 -4.340605008333575 7.518148412105016" Properties=species:S:1:pos:R:3:spacegroup_kinds:I:1:forces:R:3 spacegroup="P 1" unit_cell=conventional occupancy="_JSON {\"0\": {\"In\": 1}, \"1\": {\"In\": 1}, \"2\": {\"In\": 1}, \"3\": {\"In\": 1}, \"4\": {\"In\": 1}, \"5\": {\"In\": 1}, \"6\": {\"In\": 1}, \"7\": {\"In\": 1}, \"8\": {\"In\": 1}, \"9\": {\"In\": 1}, \"10\": {\"In\": 1}, \"11\": {\"In\": 1}, \"12\": {\"In\": 1}, \"13\": {\"In\": 1}, \"14\": {\"In\": 1}, \"15\": {\"In\": 1}, \"16\": {\"O\": 1}, \"17\": {\"O\": 1}, \"18\": {\"O\": 1}, \"19\": {\"O\": 1}, \"20\": {\"O\": 1}, \"21\": {\"O\": 1}, \"22\": {\"O\": 1}, \"23\": {\"O\": 1}, \"24\": {\"O\": 1}, \"25\": {\"O\": 1}, \"26\": {\"O\": 1}, \"27\": {\"O\": 1}, \"28\": {\"O\": 1}, \"29\": {\"O\": 1}, \"30\": {\"O\": 1}, \"31\": {\"O\": 1}, \"32\": {\"O\": 1}, \"33\": {\"O\": 1}, \"34\": {\"O\": 1}, \"35\": {\"O\": 1}, \"36\": {\"O\": 1}, \"37\": {\"O\": 1}, \"38\": {\"O\": 1}, \"39\": {\"O\": 1}}" n_minim_iter=3 energy=-45150.4674866337 stress="0.04809084373401797 1.3193098944136295e-13 -1.9546922249538216e-13 1.3193098944136295e-13 0.04809084373414192 -7.810134120228203e-13 -1.9546922249538216e-13 -7.810134120228203e-13 0.04809084373392972" free_energy=-45150.4674866337 pbc="T T T"
In      -4.36943083       3.08965417       5.92578462        0       0.00345027      -0.00243971       0.00422570
In       7.43870206       1.25095085       1.59236378        1      -0.00345027       0.00243971      -0.00422570
In       1.30015959      -0.91935166       5.35143799        2      -0.00345027       0.00243971      -0.00422570
In      -1.53463562      -2.17030250       3.75907420        3      -0.00000000      -0.00000000      -0.00000000
In      -1.30015959       4.17480542       3.47190089        4       0.00345027      -0.00243971      -0.00422570
In       4.83838288      -2.92385457       5.63861131        5       0.00345027       0.00487942      -0.00000000
In      -1.30015959       1.41675044       5.63861131        6       0.00345027       0.00487942      -0.00000000
In      -1.76911165       7.26445958       1.87953710        7      -0.00345027      -0.00487942      -0.00000000
In       4.36943082       0.16579959       4.04624752        8      -0.00345027       0.00243971       0.00422570
In      -1.53463562       4.34060501      -0.00000000        9      -0.00000000      -0.00000000      -0.00000000
In       4.36943082       6.67670711       0.28717331       10      -0.00345027       0.00243971       0.00422570
In      -1.30015959      -2.33610209       7.23097509       11       0.00345027      -0.00243971      -0.00422570
In       4.36943082       2.92385458       1.87953710       12      -0.00345027      -0.00487942       0.00000000
In       1.76911165       5.25995667       2.16671042       13       0.00345027      -0.00243971       0.00422570
In       4.60390685       0.00000000      -0.00000000       14      -0.00000000      -0.00000000      -0.00000000
In       1.53463562       2.17030251       3.75907420       15       0.00000000       0.00000000       0.00000000
O        0.94550120       4.34539125       4.07669798       16       0.02693241       0.00918490       0.01620001
O       -2.12377004       3.52813090       5.47565441       17       0.02693241       0.00943717      -0.01605436
O       -0.44632836       2.34200051       0.01194409       18       0.02653452       0.00971852      -0.01654167
O       -0.94550120      -0.80768787       2.03420398       19      -0.02693241       0.01862207       0.00014565
O        4.03427705       5.15518880       2.02225989       20      -0.00008002      -0.02817240       0.01668732
O        2.10426542       2.99656846       1.71658020       21       0.00008002      -0.02853784      -0.01605436
O        2.10426541       6.49922535       0.30567969       22       0.00008002       0.00036544       0.03274168
O       -2.35683538       6.15104309       3.77101829       23      -0.00031786      -0.02825649      -0.01654167
O        3.51559959       1.99860450       7.50620432       24      -0.02653452      -0.00971852       0.01654167
O        5.42610661      -1.81043808       3.74713011       25       0.00031786       0.02825649       0.01654167
O        6.58487083       3.35164665       1.73681431       26      -0.02653452      -0.00946625      -0.01668732
O        3.78170709       2.36057861       4.06475389       27      -0.00031786      -0.00019726       0.03274168
O        0.71243586       4.51019334       7.20052463       28      -0.00031786       0.02845375      -0.01620001
O        2.35683538      -0.16958833       0.31762378       29       0.00031786      -0.02845375       0.01620001
O       -3.51559960       0.98895836       5.78133410       30       0.02653452       0.00946625       0.01668732
O        5.19304127       0.81247411       2.04249400       31      -0.02693241      -0.00943717       0.01605436
O        0.96500582       1.34403655       5.80156820       32      -0.00008002       0.02853784       0.01605436
O        3.51559959      -1.00964613       5.79327819       33      -0.02653452       0.01918477       0.00014565
O        2.12377003      -0.00478624       3.44145042       34      -0.02693241      -0.00918490      -0.01620001
O        0.96500582      -2.15862034       7.21246872       35      -0.00008002      -0.00036544      -0.03274168
O       -0.71243586       1.98002641       3.45339451       36       0.00031786       0.00019726      -0.03274168
O       -0.96500582      -0.81458379       5.49588851       37       0.00008002       0.02817240      -0.01668732
O       -0.44632836       5.35025114       1.72487022       38       0.02653452      -0.01918477      -0.00014565
O        4.01477244       5.14829288       5.48394442       39       0.02693241      -0.01862207      -0.00014565
40
Lattice="9.20781370932097 7.216827203726299e-10 -1.4209545598250611e-15 -3.0692712371207325 8.681210018110521 -1.2499962780770807e-09 -3.069271236100119 -4.340605008333573 7.518148412105016" Properties=species:S:1:pos:R:3:spacegroup_kinds:I:1:forces:R:3 spacegroup="P 1" unit_cell=conventional occupancy="_JSON {\"0\": {\"In\": 1}, \"1\": {\"In\": 1}, \"2\": {\"In\": 1}, \"3\": {\"In\": 1}, \"4\": {\"In\": 1}, \"5\": {\"In\": 1}, \"6\": {\"In\": 1}, \"7\": {\"In\": 1}, \"8\": {\"In\": 1}, \"9\": {\"In\": 1}, \"10\": {\"In\": 1}, \"11\": {\"In\": 1}, \"12\": {\"In\": 1}, \"13\": {\"In\": 1}, \"14\": {\"In\": 1}, \"15\": {\"In\": 1}, \"16\": {\"O\": 1}, \"17\": {\"O\": 1}, \"18\": {\"O\": 1}, \"19\": {\"O\": 1}, \"20\": {\"O\": 1}, \"21\": {\"O\": 1}, \"22\": {\"O\": 1}, \"23\": {\"O\": 1}, \"24\": {\"O\": 1}, \"25\": {\"O\": 1}, \"26\": {\"O\": 1}, \"27\": {\"O\": 1}, \"28\": {\"O\": 1}, \"29\": {\"O\": 1}, \"30\": {\"O\": 1}, \"31\": {\"O\": 1}, \"32\": {\"O\": 1}, \"33\": {\"O\": 1}, \"34\": {\"O\": 1}, \"35\": {\"O\": 1}, \"36\": {\"O\": 1}, \"37\": {\"O\": 1}, \"38\": {\"O\": 1}, \"39\": {\"O\": 1}}" n_minim_iter=4 energy=-45150.46884808586 stress="0.04757903677266324 4.0875991695946333e-13 1.5330705691787278e-14 4.0875991695946333e-13 0.047579036771833796 -3.5319453762045846e-13 1.5330705691787278e-14 -3.5319453762045846e-13 0.04757903677190288" free_energy=-45150.46884808586 pbc="T T T"
In      -4.36681577       3.08780505       5.92898739        0      -0.01382137       0.00977319      -0.01692766
In       7.43608701       1.25279997       1.58916101        1       0.01382137      -0.00977319       0.01692766
In       1.29754453      -0.91750254       5.34823522        2       0.01382137      -0.00977319       0.01692766
In      -1.53463562      -2.17030250       3.75907420        3      -0.00000000      -0.00000000      -0.00000000
In      -1.29754454       4.17295630       3.46869812        4      -0.01382137       0.00977319       0.01692766
In       4.84099794      -2.92015633       5.63861131        5      -0.01382137      -0.01954637       0.00000000
In      -1.29754454       1.42044868       5.63861131        6      -0.01382137      -0.01954637       0.00000000
In      -1.77172670       7.26076134       1.87953710        7       0.01382137       0.01954637       0.00000000
In       4.36681577       0.16764871       4.04945029        8       0.01382137      -0.00977319      -0.01692766
In      -1.53463562       4.34060501      -0.00000000        9       0.00000000      -0.00000000       0.00000000
In       4.36681577       6.67855623       0.29037608       10       0.01382137      -0.00977319      -0.01692766
In      -1.29754454      -2.33795121       7.22777232       11      -0.01382137       0.00977319       0.01692766
In       4.36681577       2.92015634       1.87953710       12       0.01382137       0.01954637      -0.00000000
In       1.77172670       5.25810755       2.16991319       13      -0.01382137       0.00977319      -0.01692766
In       4.60390685       0.00000000      -0.00000000       14       0.00000000      -0.00000000       0.00000000
In       1.53463562       2.17030251       3.75907420       15       0.00000000       0.00000000      -0.00000000
O        0.94868163       4.34612559       4.07628943       16       0.02407116       0.00178415       0.02433896
O       -2.12058961       3.52740992       5.47522273       17       0.02407116       0.02018608      -0.01371460
O       -0.44525563       2.34276990       0.00893102       18       0.02873745       0.01688651      -0.00799958
O       -0.94868163      -0.80767452       2.03336375       19      -0.02407116       0.02197023       0.01062436
O        4.03253716       5.15343586       2.02443273       20       0.01100790      -0.02658879       0.01862394
O        2.10600531       2.99381026       1.71614853       21      -0.01100790      -0.02942320      -0.01371460
O        2.10600531       6.50023061       0.30828420       22      -0.01100790       0.00283441       0.03233854
O       -2.35720319       6.14977525       3.76800522       23      -0.00634161      -0.03272277      -0.00799958
O        3.51452686       1.99783511       7.50921739       24      -0.02873745      -0.01688651       0.00799958
O        5.42647442      -1.80917024       3.75014318       25       0.00634161       0.03272277       0.00799958
O        6.58379810       3.34942195       1.73464147       26      -0.02873745       0.00151541      -0.01862394
O        3.78133929       2.35860313       4.06735841       27      -0.00634161       0.00943354       0.03233854
O        0.71206805       4.51343665       7.20093318       28      -0.00634161       0.02328923      -0.02433896
O        2.35720318      -0.17283164       0.31721522       29       0.00634161      -0.02328923       0.02433896
O       -3.51452687       0.99118307       5.78350694       30       0.02873745      -0.00151541       0.01862394
O        5.18986084       0.81319510       2.04292567       31      -0.02407116      -0.02018608       0.01371460
O        0.96326592       1.34679476       5.80199988       32       0.01100790       0.02942320       0.01371460
O        3.51452686      -1.00665204       5.79243796       33      -0.02873745       0.01537110       0.01062436
O        2.12058961      -0.00552057       3.44185898       34      -0.02407116      -0.00178415      -0.02433896
O        0.96326592      -2.15962560       7.20986420       35       0.01100790      -0.00283441      -0.03233854
O       -0.71206805       1.98200188       3.45079000       36       0.00634161      -0.00943354      -0.03233854
O       -0.96326593      -0.81283084       5.49371567       37      -0.01100790       0.02658879      -0.01862394
O       -0.44525563       5.34725706       1.72571045       38       0.02873745      -0.01537110      -0.01062436
O        4.01795286       5.14827953       5.48478465       39       0.02407116      -0.02197023      -0.01062436
40
Lattice="9.207813709320968 7.216827203726299e-10 -1.4209545598250621e-15 -3.0692712371207325 8.681210018110518 -1.2499962780770807e-09 -3.069271236100119 -4.340605008333571 7.518148412105017" Properties=species:S:1:pos:R:3:spacegroup_kinds:I:1:forces:R:3 spacegroup="P 1" unit_cell=conventional occupancy="_JSON {\"0\": {\"In\": 1}, \"1\": {\"In\": 1}, \"2\": {\"In\": 1}, \"3\": {\"In\": 1}, \"4\": {\"In\": 1}, \"5\": {\"In\": 1}, \"6\": {\"In\": 1}, \"7\": {\"In\": 1}, \"8\": {\"In\": 1}, \"9\": {\"In\": 1}, \"10\": {\"In\": 1}, \"11\": {\"In\": 1}, \"12\": {\"In\": 1}, \"13\": {\"In\": 1}, \"14\": {\"In\": 1}, \"15\": {\"In\": 1}, \"16\": {\"O\": 1}, \"17\": {\"O\": 1}, \"18\": {\"O\": 1}, \"19\": {\"O\": 1}, \"20\": {\"O\": 1}, \"21\": {\"O\": 1}, \"22\": {\"O\": 1}, \"23\": {\"O\": 1}, \"24\": {\"O\": 1}, \"25\": {\"O\": 1}, \"26\": {\"O\": 1}, \"27\": {\"O\": 1}, \"28\": {\"O\": 1}, \"29\": {\"O\": 1}, \"30\": {\"O\": 1}, \"31\": {\"O\": 1}, \"32\": {\"O\": 1}, \"33\": {\"O\": 1}, \"34\": {\"O\": 1}, \"35\": {\"O\": 1}, \"36\": {\"O\": 1}, \"37\": {\"O\": 1}, \"38\": {\"O\": 1}, \"39\": {\"O\": 1}}" n_minim_iter=5 energy=-45150.47134263016 stress="0.04752980317537928 -1.385045248426767e-13 -1.5425727062788915e-13 -1.385045248426767e-13 0.047529803175261405 2.1297829796682492e-15 -1.5425727062788915e-13 2.1297829796682492e-15 0.04752980317559621" free_energy=-45150.47134263016 pbc="T T T"
In      -4.36546221       3.08684793       5.93064517        0      -0.01343187       0.00949777      -0.01645062
In       7.43473344       1.25375708       1.58750324        1       0.01343187      -0.00949777       0.01645062
In       1.29619097      -0.91654542       5.34657744        2       0.01343187      -0.00949777       0.01645062
In      -1.53463562      -2.17030250       3.75907420        3       0.00000000       0.00000000       0.00000000
In      -1.29619097       4.17199918       3.46704034        4      -0.01343187       0.00949777       0.01645062
In       4.84235150      -2.91824209       5.63861131        5      -0.01343187      -0.01899554      -0.00000000
In      -1.29619097       1.42236291       5.63861131        6      -0.01343187      -0.01899554      -0.00000000
In      -1.77308027       7.25884711       1.87953710        7       0.01343187       0.01899554       0.00000000
In       4.36546220       0.16860583       4.05110807        8       0.01343187      -0.00949777      -0.01645062
In      -1.53463562       4.34060501      -0.00000000        9       0.00000000      -0.00000000       0.00000000
In       4.36546220       6.67951335       0.29203386       10       0.01343187      -0.00949777      -0.01645062
In      -1.29619097      -2.33890833       7.22611455       11      -0.01343187       0.00949777       0.01645062
In       4.36546220       2.91824210       1.87953710       12       0.01343187       0.01899554      -0.00000000
In       1.77308027       5.25715043       2.17157096       13      -0.01343187       0.00949777      -0.01645062
In       4.60390685       0.00000000      -0.00000000       14      -0.00000000       0.00000000       0.00000000
In       1.53463562       2.17030251       3.75907420       15      -0.00000000      -0.00000000      -0.00000000
O        0.95528302       4.34785658       4.07933469       16       0.01152011      -0.01970367      -0.00482758
O       -2.11398822       3.52918169       5.47220102       17       0.01152011       0.00567103       0.01947767
O       -0.43975273       2.34531842       0.00456394       18      -0.00939006       0.02045676      -0.00613196
O       -0.95528302      -0.80417175       2.03338730       19      -0.01152011      -0.01403264       0.01465009
O        4.03200714       5.14741176       2.02882336       20       0.00150666       0.01049235       0.02078206
O        2.10653533       2.98699582       1.71312681       21      -0.00150666      -0.01275161       0.01947767
O        2.10653533       6.50102095       0.31569654       22      -0.00150666       0.02324396       0.00130439
O       -2.35777165       6.14373756       3.76363814       23      -0.02241684       0.00203412      -0.00613196
O        3.50902396       1.99528659       7.51358447       24       0.00939006      -0.02045676       0.00613196
O        5.42704289      -1.80313254       3.75451026       25       0.02241684      -0.00203412       0.00613196
O        6.57829520       3.34691421       1.73025084       26       0.00939006       0.00491794      -0.02078206
O        3.78077082       2.35783998       4.07477074       27      -0.02241684      -0.00632749       0.00130439
O        0.71149958       4.52023750       7.19788793       28      -0.02241684       0.00429338       0.00482758
O        2.35777165      -0.17963249       0.32026048       29       0.02241684      -0.00429338      -0.00482758
O       -3.50902396       0.99369081       5.78789756       30      -0.00939006      -0.00491794       0.02078206
O        5.18325945       0.81142333       2.04594739       31      -0.01152011      -0.00567103      -0.01947767
O        0.96273590       1.35360920       5.80502159       32       0.00150666       0.01275161      -0.01947767
O        3.50902396      -1.00159578       5.79246150       33       0.00939006       0.01553882       0.01465009
O        2.11398822      -0.00725157       3.43881372       34      -0.01152011       0.01970367       0.00482758
O        0.96273590      -2.16041594       7.20245187       35       0.00150666      -0.02324396      -0.00130439
O       -0.71149959       1.98276504       3.44337766       36       0.02241684       0.00632749      -0.00130439
O       -0.96273591      -0.80680674       5.48932505       37      -0.00150666      -0.01049235      -0.02078206
O       -0.43975273       5.34220080       1.72568690       38      -0.00939006      -0.01553882      -0.01465009
O        4.02455425       5.14477676       5.48476111       39       0.01152011       0.01403264      -0.01465009
40