40
Lattice="8.691062505380415 6.811818951415928e-10 -1.0859222893531385e-14 -2.8970208357690295 8.194012310800456 -1.1798457975959626e-09 -2.8970208348056854 -4.097006154719039 7.096222820862196" Properties=species:S:1:pos:R:3:spacegroup_kinds:I:1:forces:R:3 spacegroup="P 1" unit_cell=conventional occupancy="_JSON {\"0\": {\"In\": 1}, \"1\": {\"In\": 1}, \"2\": {\"In\": 1}, \"3\": {\"In\": 1}, \"4\": {\"In\": 1}, \"5\": {\"In\": 1}, \"6\": {\"In\": 1}, \"7\": {\"In\": 1}, \"8\": {\"In\": 1}, \"9\": {\"In\": 1}, \"10\": {\"In\": 1}, \"11\": {\"In\": 1}, \"12\": {\"In\": 1}, \"13\": {\"In\": 1}, \"14\": {\"In\": 1}, \"15\": {\"In\": 1}, \"16\": {\"O\": 1}, \"17\": {\"O\": 1}, \"18\": {\"O\": 1}, \"19\": {\"O\": 1}, \"20\": {\"O\": 1}, \"21\": {\"O\": 1}, \"22\": {\"O\": 1}, \"23\": {\"O\": 1}, \"24\": {\"O\": 1}, \"25\": {\"O\": 1}, \"26\": {\"O\": 1}, \"27\": {\"O\": 1}, \"28\": {\"O\": 1}, \"29\": {\"O\": 1}, \"30\": {\"O\": 1}, \"31\": {\"O\": 1}, \"32\": {\"O\": 1}, \"33\": {\"O\": 1}, \"34\": {\"O\": 1}, \"35\": {\"O\": 1}, \"36\": {\"O\": 1}, \"37\": {\"O\": 1}, \"38\": {\"O\": 1}, \"39\": {\"O\": 1}}" n_minim_iter=1 energy=-45150.88545737117 stress="-0.05103647462358421 -3.55120526660318e-14 -1.2428240805381452e-13 -3.55120526660318e-14 -0.051036474624029236 2.051458421789343e-14 -1.2428240805381452e-13 2.051458421789343e-14 -0.051036474623536394" free_energy=-45150.88545737117 pbc="T T T"
In      -4.14982714       2.93437091       5.56185473        0       0.01277555      -0.00903368       0.01564679
In       7.04684797       1.16263525       1.53436809        1      -0.01277555       0.00903368      -0.01564679
In       1.25280630      -0.88586783       5.08247950        2      -0.01277555       0.00903368      -0.01564679
In      -1.44851042      -2.04850308       3.54811141        3       0.00000000      -0.00000000      -0.00000000
In      -1.25280630       3.95862245       3.30842379        4       0.01277555      -0.00903368      -0.01564679
In       4.54123537      -2.79598720       5.32216711        5       0.01277555       0.01806736      -0.00000000
In      -1.25280630       1.30101896       5.32216711        6       0.01277555       0.01806736       0.00000000
In      -1.64421454       6.89299335       1.77405570        7      -0.01277555      -0.01806736      -0.00000000
In       4.14982713       0.13838371       3.78779902        8      -0.01277555       0.00903368       0.01564679
In      -1.44851042       4.09700616      -0.00000000        9       0.00000000       0.00000000      -0.00000000
In       4.14982713       6.28389294       0.23968761       10      -0.01277555       0.00903368       0.01564679
In      -1.25280630      -2.18688678       6.85653520       11       0.01277555      -0.00903368      -0.01564679
In       4.14982713       2.79598720       1.77405570       12      -0.01277555      -0.01806736       0.00000000
In       1.64421453       4.98287399       2.01374332       13       0.01277555      -0.00903368       0.01564679
In       4.34553125       0.00000000      -0.00000000       14       0.00000000       0.00000000      -0.00000000
In       1.44851042       2.04850308       3.54811141       15      -0.00000000       0.00000000      -0.00000000
O        0.84576613       4.09485036       3.86994581       16      -0.00838258       0.00602493       0.02942803
O       -2.05125470       3.35254929       5.16311688       17      -0.00838258       0.02247296      -0.01993176
O       -0.42199113       2.20048597       0.06232627       18       0.02407388      -0.00047722       0.01981911
O       -0.84576613      -0.74661266       1.93683988       19       0.00838258       0.02849789       0.00949627
O        3.84456535       4.87960291       1.87451361       20       0.02398190      -0.01705532      -0.01032284
O        1.94947632       2.86492813       1.61500547       21      -0.02398190       0.00041218      -0.01993176
O        1.94947632       6.11168094       0.25950813       22      -0.02398190      -0.01746750       0.00960892
O       -2.21530177       5.80987096       3.61043768       23       0.00847455      -0.02253800       0.01981911
O        3.31901196       1.89652019       7.03389654       24      -0.02407388       0.00047722      -0.01981911
O        5.11232261      -1.71286480       3.48578513       25      -0.00847455       0.02253800      -0.01981911
O        6.21603280       3.20272220       1.67359780       26      -0.02407388       0.01692525       0.01032284
O        3.57873990       2.27029835       3.80761954       27       0.00847455       0.02843285       0.00960892
O        0.68171906       4.21084916       6.77438841       28       0.00847455      -0.00589486      -0.02942803
O        2.21530177      -0.11384300       0.32183441       29      -0.00847455       0.00589486       0.02942803
O       -3.31901196       0.89428396       5.42262502       30       0.02407388      -0.01692525      -0.01032284
O        4.94827554       0.74445687       1.93310593       31       0.00838258      -0.02247296       0.01993176
O        0.94754451       1.23207803       5.48121734       32       0.02398190      -0.00041218       0.01993176
O        3.31901196      -1.00223623       5.48495129       33      -0.02407388      -0.01740247       0.00949627
O        2.05125470       0.00215580       3.22627700       34       0.00838258      -0.00602493      -0.02942803
O        0.94754451      -2.01467478       6.83671469       35       0.02398190       0.01746750      -0.00960892
O       -0.68171906       1.82670781       3.28860327       36      -0.00847455      -0.02843285      -0.00960892
O       -0.94754451      -0.78259675       5.22170921       37      -0.02398190       0.01705532       0.01032284
O       -0.42199113       5.09924239       1.61127152       38       0.02407388       0.01740247      -0.00949627
O        3.74278697       4.84361882       5.15938293       39      -0.00838258      -0.02849789      -0.00949627
40
Lattice="8.691062505380412 6.811818951415926e-10 -1.085922289353138e-14 -2.8970208357690286 8.194012310800453 -1.1798457975959624e-09 -2.8970208348056845 -4.097006154719037 7.096222820862195" Properties=species:S:1:pos:R:3:spacegroup_kinds:I:1:forces:R:3 spacegroup="P 1" unit_cell=conventional occupancy="_JSON {\"0\": {\"In\": 1}, \"1\": {\"In\": 1}, \"2\": {\"In\": 1}, \"3\": {\"In\": 1}, \"4\": {\"In\": 1}, \"5\": {\"In\": 1}, \"6\": {\"In\": 1}, \"7\": {\"In\": 1}, \"8\": {\"In\": 1}, \"9\": {\"In\": 1}, \"10\": {\"In\": 1}, \"11\": {\"In\": 1}, \"12\": {\"In\": 1}, \"13\": {\"In\": 1}, \"14\": {\"In\": 1}, \"15\": {\"In\": 1}, \"16\": {\"O\": 1}, \"17\": {\"O\": 1}, \"18\": {\"O\": 1}, \"19\": {\"O\": 1}, \"20\": {\"O\": 1}, \"21\": {\"O\": 1}, \"22\": {\"O\": 1}, \"23\": {\"O\": 1}, \"24\": {\"O\": 1}, \"25\": {\"O\": 1}, \"26\": {\"O\": 1}, \"27\": {\"O\": 1}, \"28\": {\"O\": 1}, \"29\": {\"O\": 1}, \"30\": {\"O\": 1}, \"31\": {\"O\": 1}, \"32\": {\"O\": 1}, \"33\": {\"O\": 1}, \"34\": {\"O\": 1}, \"35\": {\"O\": 1}, \"36\": {\"O\": 1}, \"37\": {\"O\": 1}, \"38\": {\"O\": 1}, \"39\": {\"O\": 1}}" n_minim_iter=2 energy=-45150.88697480938 stress="-0.050914523383938336 -6.267450544573736e-13 -1.4914996212245963e-13 -6.267450544573736e-13 -0.050914523384972515 -2.823191160848618e-14 -1.4914996212245963e-13 -2.823191160848618e-14 -0.050914523383021076" free_energy=-45150.88697480938 pbc="T T T"
In      -4.14891460       2.93372565       5.56297236        0       0.01314475      -0.00929474       0.01609896
In       7.04593543       1.16328051       1.53325046        1      -0.01314475       0.00929474      -0.01609896
In       1.25189376      -0.88522256       5.08136187        2      -0.01314475       0.00929474      -0.01609896
In      -1.44851042      -2.04850308       3.54811141        3       0.00000000       0.00000000       0.00000000
In      -1.25189376       3.95797719       3.30730616        4       0.01314475      -0.00929474      -0.01609896
In       4.54214791      -2.79469667       5.32216711        5       0.01314475       0.01858948      -0.00000000
In      -1.25189376       1.30230949       5.32216711        6       0.01314475       0.01858948       0.00000000
In      -1.64512708       6.89170283       1.77405570        7      -0.01314475      -0.01858948      -0.00000000
In       4.14891459       0.13902897       3.78891665        8      -0.01314475       0.00929474       0.01609896
In      -1.44851042       4.09700616      -0.00000000        9       0.00000000      -0.00000000       0.00000000
In       4.14891459       6.28453821       0.24080524       10      -0.01314475       0.00929474       0.01609896
In      -1.25189376      -2.18753205       6.85541757       11       0.01314475      -0.00929474      -0.01609896
In       4.14891459       2.79469667       1.77405570       12      -0.01314475      -0.01858948      -0.00000000
In       1.64512707       4.98222872       2.01486095       13       0.01314475      -0.00929474       0.01609896
In       4.34553125       0.00000000      -0.00000000       14       0.00000000       0.00000000      -0.00000000
In       1.44851042       2.04850308       3.54811141       15       0.00000000       0.00000000       0.00000000
O        0.84516738       4.09528071       3.87204782       16      -0.00522325      -0.00522865       0.00979076
O       -2.05185346       3.35415450       5.16169319       17      -0.00522325       0.01109337      -0.00036723
O       -0.42027157       2.20045188       0.06374192       18       0.00378823       0.00472129       0.01066953
O       -0.84516738      -0.74457710       1.93751819       19       0.00522325       0.00586472       0.00942352
O        3.84627834       4.87838468       1.87377626       20       0.01220001       0.00029534      -0.00124601
O        1.94776333       2.86495757       1.61358178       21      -0.01220001       0.00122674      -0.00036723
O        1.94776333       6.11043326       0.26019448       22      -0.01220001      -0.00093140      -0.00087877
O       -2.21469645       5.80826111       3.61185333       23      -0.00318854      -0.00514534       0.01066953
O        3.31729240       1.89655428       7.03248089       24      -0.00378823      -0.00472129      -0.01066953
O        5.11171728      -1.71125495       3.48436948       25       0.00318854       0.00514534      -0.01066953
O        6.21431323       3.20393115       1.67433514       26      -0.00378823       0.01160073       0.00124601
O        3.57934522       2.27232927       3.80830589       27      -0.00318854       0.01181275      -0.00087877
O        0.68232439       4.21042810       6.77228641       28      -0.00318854      -0.00666741      -0.00979076
O        2.21469645      -0.11342194       0.32393641       29       0.00318854       0.00666741       0.00979076
O       -3.31729240       0.89307501       5.42188767       30       0.00378823      -0.01160073      -0.00124601
O        4.94887429       0.74285166       1.93452963       31       0.00522325      -0.01109337       0.00036723
O        0.94925750       1.23204859       5.48264104       32       0.01220001      -0.00122674       0.00036723
O        3.31729240      -1.00347926       5.48562960       33      -0.00378823      -0.00687944       0.00942352
O        2.05185346       0.00172545       3.22417500       34       0.00522325       0.00522865      -0.00979076
O        0.94925750      -2.01342710       6.83602833       35       0.01220001       0.00093140       0.00087877
O       -0.68232439       1.82467689       3.28791692       36       0.00318854      -0.01181275       0.00087877
O       -0.94925751      -0.78137852       5.22244655       37      -0.01220001      -0.00029534       0.00124601
O       -0.42027157       5.10048542       1.61059322       38       0.00378823       0.00687944      -0.00942352
O        3.74218821       4.84158326       5.15870463       39      -0.00522325      -0.00586472      -0.00942352
40
Lattice="8.691062505380412 6.811818951415926e-10 -1.0859222893531385e-14 -2.8970208357690295 8.194012310800451 -1.1798457975959626e-09 -2.8970208348056854 -4.097006154719036 7.096222820862197" Properties=species:S:1:pos:R:3:spacegroup_kinds:I:1:forces:R:3 spacegroup="P 1" unit_cell=conventional occupancy="_JSON {\"0\": {\"In\": 1}, \"1\": {\"In\": 1}, \"2\": {\"In\": 1}, \"3\": {\"In\": 1}, \"4\": {\"In\": 1}, \"5\": {\"In\": 1}, \"6\": {\"In\": 1}, \"7\": {\"In\": 1}, \"8\": {\"In\": 1}, \"9\": {\"In\": 1}, \"10\": {\"In\": 1}, \"11\": {\"In\": 1}, \"12\": {\"In\": 1}, \"13\": {\"In\": 1}, \"14\": {\"In\": 1}, \"15\": {\"In\": 1}, \"16\": {\"O\": 1}, \"17\": {\"O\": 1}, \"18\": {\"O\": 1}, \"19\": {\"O\": 1}, \"20\": {\"O\": 1}, \"21\": {\"O\": 1}, \"22\": {\"O\": 1}, \"23\": {\"O\": 1}, \"24\": {\"O\": 1}, \"25\": {\"O\": 1}, \"26\": {\"O\": 1}, \"27\": {\"O\": 1}, \"28\": {\"O\": 1}, \"29\": {\"O\": 1}, \"30\": {\"O\": 1}, \"31\": {\"O\": 1}, \"32\": {\"O\": 1}, \"33\": {\"O\": 1}, \"34\": {\"O\": 1}, \"35\": {\"O\": 1}, \"36\": {\"O\": 1}, \"37\": {\"O\": 1}, \"38\": {\"O\": 1}, \"39\": {\"O\": 1}}" n_minim_iter=3 energy=-45150.88751881906 stress="-0.05079679059901241 -2.495635342332736e-13 -2.719650498152584e-13 -2.495635342332736e-13 -0.05079679059829356 2.5662178674992598e-14 -2.719650498152584e-13 2.5662178674992598e-14 -0.05079679059874559" free_energy=-45150.88751881906 pbc="T T T"
In      -4.14788475       2.93299743       5.56423366        0       0.00899597      -0.00636111       0.01101777
In       7.04490558       1.16400873       1.53198916        1      -0.00899597       0.00636111      -0.01101777
In       1.25086391      -0.88449435       5.08010057        2      -0.00899597       0.00636111      -0.01101777
In      -1.44851042      -2.04850308       3.54811141        3      -0.00000000      -0.00000000      -0.00000000
In      -1.25086391       3.95724897       3.30604486        4       0.00899597      -0.00636111      -0.01101777
In       4.54317776      -2.79324024       5.32216711        5       0.00899597       0.01272222       0.00000000
In      -1.25086391       1.30376591       5.32216711        6       0.00899597       0.01272222      -0.00000000
In      -1.64615693       6.89024640       1.77405570        7      -0.00899597      -0.01272222       0.00000000
In       4.14788474       0.13975719       3.79017796        8      -0.00899597       0.00636111       0.01101777
In      -1.44851042       4.09700616      -0.00000000        9      -0.00000000       0.00000000       0.00000000
In       4.14788474       6.28526642       0.24206654       10      -0.00899597       0.00636111       0.01101777
In      -1.25086391      -2.18826026       6.85415627       11       0.00899597      -0.00636111      -0.01101777
In       4.14788474       2.79324025       1.77405570       12      -0.00899597      -0.01272222       0.00000000
In       1.64615692       4.98150051       2.01612225       13       0.00899597      -0.00636111       0.01101777
In       4.34553125       0.00000000      -0.00000000       14      -0.00000000       0.00000000       0.00000000
In       1.44851042       2.04850308       3.54811141       15       0.00000000      -0.00000000      -0.00000000
O        0.84458059       4.09546757       3.87388432       16      -0.00055916      -0.01049345      -0.00403378
O       -2.05244024       3.35565153       5.16061311       17      -0.00055916       0.00175337       0.01110448
O       -0.41887958       2.20054970       0.06508534       18      -0.00842661       0.00731650       0.00146886
O       -0.84458060      -0.74289322       1.93827461       19       0.00055916      -0.00874008       0.00707070
O        3.84788534       4.87747641       1.87318927       20       0.00183948       0.00958812       0.00560185
O        1.94615632       2.86501179       1.61250170       21      -0.00183948      -0.00005728       0.01110448
O        1.94615632       6.10947078       0.26068757       22      -0.00183948       0.00964540      -0.00550263
O       -2.21432468       5.80691612       3.61319675       23      -0.00970693       0.00550585       0.00146886
O        3.31590041       1.89645645       7.03113748       24       0.00842661      -0.00731650      -0.00146886
O        5.11134552      -1.70990996       3.48302607       25       0.00970693      -0.00550585      -0.00146886
O        6.21292125       3.20514349       1.67492213       26       0.00842661       0.00493032      -0.00560185
O        3.57971699       2.27416519       3.80879898       27      -0.00970693      -0.00148086      -0.00550263
O        0.68269615       4.20993716       6.77044991       28      -0.00970693      -0.00402499       0.00403378
O        2.21432468      -0.11293100       0.32577291       29       0.00970693       0.00402499      -0.00403378
O       -3.31590041       0.89186267       5.42130068       30      -0.00842661      -0.00493032       0.00560185
O        4.94946107       0.74135463       1.93560970       31       0.00055916      -0.00175337      -0.01110448
O        0.95086451       1.23199437       5.48372111       32       0.00183948       0.00005728      -0.01110448
O        3.31590041      -1.00459378       5.48638602       33       0.00842661       0.00238618       0.00707070
O        2.05244024       0.00153859       3.22233850       34       0.00055916       0.01049345       0.00403378
O        0.95086451      -2.01246462       6.83553525       35       0.00183948      -0.00964540       0.00550263
O       -0.68269615       1.82284097       3.28742384       36       0.00970693       0.00148086       0.00550263
O       -0.95086451      -0.78047025       5.22303354       37      -0.00183948      -0.00958812      -0.00560185
O       -0.41887958       5.10159994       1.60983679       38      -0.00842661      -0.00238618      -0.00707070
O        3.74160143       4.83989938       5.15794820       39      -0.00055916       0.00874008      -0.00707070
40
Lattice="8.691062505380412 6.811818951415926e-10 -1.0859222893531375e-14 -2.8970208357690295 8.194012310800451 -1.1798457975959626e-09 -2.8970208348056854 -4.097006154719036 7.096222820862197" Properties=species:S:1:pos:R:3:spacegroup_kinds:I:1:forces:R:3 spacegroup="P 1" unit_cell=conventional occupancy="_JSON {\"0\": {\"In\": 1}, \"1\": {\"In\": 1}, \"2\": {\"In\": 1}, \"3\": {\"In\": 1}, \"4\": {\"In\": 1}, \"5\": {\"In\": 1}, \"6\": {\"In\": 1}, \"7\": {\"In\": 1}, \"8\": {\"In\": 1}, \"9\": {\"In\": 1}, \"10\": {\"In\": 1}, \"11\": {\"In\": 1}, \"12\": {\"In\": 1}, \"13\": {\"In\": 1}, \"14\": {\"In\": 1}, \"15\": {\"In\": 1}, \"16\": {\"O\": 1}, \"17\": {\"O\": 1}, \"18\": {\"O\": 1}, \"19\": {\"O\": 1}, \"20\": {\"O\": 1}, \"21\": {\"O\": 1}, \"22\": {\"O\": 1}, \"23\": {\"O\": 1}, \"24\": {\"O\": 1}, \"25\": {\"O\": 1}, \"26\": {\"O\": 1}, \"27\": {\"O\": 1}, \"28\": {\"O\": 1}, \"29\": {\"O\": 1}, \"30\": {\"O\": 1}, \"31\": {\"O\": 1}, \"32\": {\"O\": 1}, \"33\": {\"O\": 1}, \"34\": {\"O\": 1}, \"35\": {\"O\": 1}, \"36\": {\"O\": 1}, \"37\": {\"O\": 1}, \"38\": {\"O\": 1}, \"39\": {\"O\": 1}}" n_minim_iter=4 energy=-45150.88763696916 stress="-0.050751483369867456 5.054005824999612e-13 -3.2560341904764835e-13 5.054005824999612e-13 -0.05075148337055384 2.0620277858511024e-13 -3.2560341904764835e-13 2.0620277858511024e-13 -0.05075148337053723" free_energy=-45150.88763696916 pbc="T T T"
In      -4.14722718       2.93253246       5.56503901        0       0.00091949      -0.00065018       0.00112615
In       7.04424801       1.16447370       1.53118381        1      -0.00091949       0.00065018      -0.00112615
In       1.25020634      -0.88402938       5.07929522        2      -0.00091949       0.00065018      -0.00112615
In      -1.44851042      -2.04850308       3.54811141        3       0.00000000      -0.00000000      -0.00000000
In      -1.25020635       3.95678400       3.30523951        4       0.00091949      -0.00065018      -0.00112615
In       4.54383532      -2.79231031       5.32216711        5       0.00091949       0.00130036      -0.00000000
In      -1.25020635       1.30469585       5.32216711        6       0.00091949       0.00130036       0.00000000
In      -1.64681449       6.88931647       1.77405570        7      -0.00091949      -0.00130036       0.00000000
In       4.14722718       0.14022216       3.79098330        8      -0.00091949       0.00065018       0.00112615
In      -1.44851042       4.09700616      -0.00000000        9       0.00000000       0.00000000       0.00000000
In       4.14722718       6.28573139       0.24287189       10      -0.00091949       0.00065018       0.00112615
In      -1.25020635      -2.18872523       6.85335092       11       0.00091949      -0.00065018      -0.00112615
In       4.14722718       2.79231031       1.77405570       12      -0.00091949      -0.00130036      -0.00000000
In       1.64681449       4.98103554       2.01692760       13       0.00091949      -0.00065018       0.00112615
In       4.34553125       0.00000000      -0.00000000       14      -0.00000000      -0.00000000       0.00000000
In       1.44851042       2.04850308       3.54811141       15       0.00000000       0.00000000      -0.00000000
O        0.84435940       4.09518726       3.87440046       16       0.00353991      -0.00415370      -0.00251915
O       -2.05266144       3.35623867       5.16059780       17       0.00353991      -0.00010480       0.00485679
O       -0.41866402       2.20082802       0.06560493       18      -0.00283498       0.00440293      -0.00295083
O       -0.84435940      -0.74258638       1.93877544       19      -0.00353991      -0.00425850       0.00233764
O        3.84851264       4.87746956       1.87317050       20      -0.00127878       0.00255484       0.00528847
O        1.94552902       2.86502462       1.61248639       21       0.00127878      -0.00330253       0.00485679
O        1.94552902       6.10945111       0.26068411       22       0.00127878       0.00585737       0.00043168
O       -2.21451523       5.80662012       3.61371634       23      -0.00509612       0.00120520      -0.00295083
O        3.31568485       1.89617814       7.03061788       24       0.00283498      -0.00440293       0.00295083
O        5.11153606      -1.70961396       3.48250647       25       0.00509612      -0.00120520       0.00295083
O        6.21270569       3.20573263       1.67494090       26       0.00283498      -0.00035403      -0.00528847
O        3.57952644       2.27476318       3.80879552       27      -0.00509612      -0.00315810       0.00043168
O        0.68250560       4.20963518       6.76993377       28      -0.00509612       0.00195289       0.00251915
O        2.21451523      -0.11262902       0.32628905       29       0.00509612      -0.00195289      -0.00251915
O       -3.31568486       0.89127353       5.42128191       30      -0.00283498       0.00035403       0.00528847
O        4.94968227       0.74076749       1.93562502       31      -0.00353991       0.00010480      -0.00485679
O        0.95149181       1.23198154       5.48373643       32      -0.00127878       0.00330253      -0.00485679
O        3.31568485      -1.00490461       5.48688685       33       0.00283498       0.00475696       0.00233764
O        2.05266143       0.00181890       3.22182236       34      -0.00353991       0.00415370       0.00251915
O        0.95149181      -2.01244495       6.83553870       35      -0.00127878      -0.00585737      -0.00043168
O       -0.68250561       1.82224298       3.28742729       36       0.00509612       0.00315810      -0.00043168
O       -0.95149181      -0.78046340       5.22305231       37       0.00127878      -0.00255484      -0.00528847
O       -0.41866402       5.10191076       1.60933597       38      -0.00283498      -0.00475696      -0.00233764
O        3.74138023       4.83959254       5.15744738       39       0.00353991       0.00425850      -0.00233764
