40
Lattice="9.137522313830818 7.161709349677422e-10 -5.09744208061862e-15 -3.0458407719521547 8.61493865489882 -1.2404451057645928e-09 -3.045840770939331 -4.307469326733238 7.460755728013899" Properties=species:S:1:pos:R:3:spacegroup_kinds:I:1:forces:R:3 spacegroup="P 1" unit_cell=conventional occupancy="_JSON {\"0\": {\"In\": 1}, \"1\": {\"In\": 1}, \"2\": {\"In\": 1}, \"3\": {\"In\": 1}, \"4\": {\"In\": 1}, \"5\": {\"In\": 1}, \"6\": {\"In\": 1}, \"7\": {\"In\": 1}, \"8\": {\"In\": 1}, \"9\": {\"In\": 1}, \"10\": {\"In\": 1}, \"11\": {\"In\": 1}, \"12\": {\"In\": 1}, \"13\": {\"In\": 1}, \"14\": {\"In\": 1}, \"15\": {\"In\": 1}, \"16\": {\"O\": 1}, \"17\": {\"O\": 1}, \"18\": {\"O\": 1}, \"19\": {\"O\": 1}, \"20\": {\"O\": 1}, \"21\": {\"O\": 1}, \"22\": {\"O\": 1}, \"23\": {\"O\": 1}, \"24\": {\"O\": 1}, \"25\": {\"O\": 1}, \"26\": {\"O\": 1}, \"27\": {\"O\": 1}, \"28\": {\"O\": 1}, \"29\": {\"O\": 1}, \"30\": {\"O\": 1}, \"31\": {\"O\": 1}, \"32\": {\"O\": 1}, \"33\": {\"O\": 1}, \"34\": {\"O\": 1}, \"35\": {\"O\": 1}, \"36\": {\"O\": 1}, \"37\": {\"O\": 1}, \"38\": {\"O\": 1}, \"39\": {\"O\": 1}}" n_minim_iter=7 energy=-45151.47682151598 stress="0.025311981749844396 -4.5164614285921735e-13 9.59738763758566e-14 -4.5164614285921735e-13 0.025311981751410483 4.910930294452625e-13 9.59738763758566e-14 4.910930294452625e-13 0.025311981750710123" free_energy=-45151.47682151598 pbc="T T T"
In      -4.35259556       3.07774983       5.86031451        0       0.00131513      -0.00092994       0.00161070
In       7.39843632       1.22971950       1.60044122        1      -0.00131513       0.00092994      -0.00161070
In       1.30675478      -0.92401517       5.33081908        2      -0.00131513       0.00092994      -0.00161070
In      -1.52292039      -2.15373466       3.73037786        3       0.00000000      -0.00000000       0.00000000
In      -1.30675479       4.15461717       3.46563015        4       0.00131513      -0.00092994      -0.00161070
In       4.78492676      -2.92489767       5.59556679        5       0.00131513       0.00185988      -0.00000000
In      -1.30675479       1.38257166       5.59556679        6       0.00131513       0.00185988       0.00000000
In      -1.73908599       7.23236700       1.86518893        7      -0.00131513      -0.00185988       0.00000000
In       4.35259555       0.15285217       3.99512557        8      -0.00131513       0.00092994       0.00161070
In      -1.52292039       4.30746933      -0.00000000        9       0.00000000      -0.00000000       0.00000000
In       4.35259555       6.61405616       0.26474771       10      -0.00131513       0.00092994       0.00161070
In      -1.30675479      -2.30658682       7.19600801       11       0.00131513      -0.00092994      -0.00161070
In       4.35259555       2.92489767       1.86518893       12      -0.00131513      -0.00185988       0.00000000
In       1.73908599       5.23148450       2.12993664       13       0.00131513      -0.00092994       0.00161070
In       4.56876116       0.00000000      -0.00000000       14      -0.00000000       0.00000000       0.00000000
In       1.52292038       2.15373467       3.73037786       15       0.00000000       0.00000000      -0.00000000
O        0.92211856       4.31160521       4.05197505       16      -0.00042218       0.00008849       0.00161059
O       -2.12372221       3.50704539       5.43118642       17      -0.00042218       0.00135056      -0.00088193
O       -0.44337473       2.31886029       0.02842766       18       0.00121603       0.00019218       0.00112445
O       -0.92211856      -0.79628805       2.02240575       19       0.00042218       0.00143905       0.00072866
O        4.01438151       5.12017010       1.99397808       20       0.00141405      -0.00078985      -0.00039579
O        2.07730003       2.98698404       1.70080856       21      -0.00141405      -0.00005216      -0.00088193
O        2.07730003       6.44065539       0.29316952       22      -0.00141405      -0.00073769       0.00048613
O       -2.33403402       6.10626826       3.75880552       23       0.00022415      -0.00121054       0.00112445
O        3.48921550       1.98860904       7.43232806       24      -0.00121603      -0.00019218      -0.00112445
O        5.37987479      -1.79879893       3.70195020       25      -0.00022415       0.00121054      -0.00112445
O        6.53505627       3.33778389       1.73639977       26      -0.00121603       0.00106990       0.00039579
O        3.75764752       2.35582161       4.02354739       27       0.00022415       0.00157908       0.00048613
O        0.71180675       4.46031812       7.13915853       28       0.00022415      -0.00036853      -0.00161059
O        2.33403402      -0.15284879       0.32159719       29      -0.00022415       0.00036853       0.00161059
O       -3.48921550       0.96968544       5.72435595       30       0.00121603      -0.00106990      -0.00039579
O        5.16956298       0.80042394       2.02956930       31       0.00042218      -0.00135056       0.00088193
O        0.96854074       1.32048529       5.75994716       32       0.00141405       0.00005216       0.00088193
O        3.48921550      -1.01892359       5.75278361       33      -0.00121603      -0.00087771       0.00072866
O        2.12372221      -0.00413588       3.40878067       34       0.00042218      -0.00008849      -0.00161059
O        0.96854074      -2.13318606       7.16758620       35       0.00141405       0.00073769      -0.00048613
O       -0.71180675       1.95164772       3.43720833       36      -0.00022415      -0.00157908      -0.00048613
O       -0.96854074      -0.81270077       5.46677764       37      -0.00141405       0.00078985       0.00039579
O       -0.44337473       5.32639293       1.70797211       38       0.00121603       0.00087771      -0.00072866
O        3.96795933       5.10375739       5.43834997       39      -0.00042218      -0.00143905      -0.00072866
