40
Lattice="8.919878985802448 6.991139101775218e-10 -4.779427441846986e-15 -2.973292995926615 8.409742557399356 -1.2109030390333405e-09 -2.9732929949379128 -4.204871278000562 7.283050694802226" Properties=species:S:1:pos:R:3:spacegroup_kinds:I:1:forces:R:3 spacegroup="P 1" unit_cell=conventional occupancy="_JSON {\"0\": {\"In\": 1}, \"1\": {\"In\": 1}, \"2\": {\"In\": 1}, \"3\": {\"In\": 1}, \"4\": {\"In\": 1}, \"5\": {\"In\": 1}, \"6\": {\"In\": 1}, \"7\": {\"In\": 1}, \"8\": {\"In\": 1}, \"9\": {\"In\": 1}, \"10\": {\"In\": 1}, \"11\": {\"In\": 1}, \"12\": {\"In\": 1}, \"13\": {\"In\": 1}, \"14\": {\"In\": 1}, \"15\": {\"In\": 1}, \"16\": {\"O\": 1}, \"17\": {\"O\": 1}, \"18\": {\"O\": 1}, \"19\": {\"O\": 1}, \"20\": {\"O\": 1}, \"21\": {\"O\": 1}, \"22\": {\"O\": 1}, \"23\": {\"O\": 1}, \"24\": {\"O\": 1}, \"25\": {\"O\": 1}, \"26\": {\"O\": 1}, \"27\": {\"O\": 1}, \"28\": {\"O\": 1}, \"29\": {\"O\": 1}, \"30\": {\"O\": 1}, \"31\": {\"O\": 1}, \"32\": {\"O\": 1}, \"33\": {\"O\": 1}, \"34\": {\"O\": 1}, \"35\": {\"O\": 1}, \"36\": {\"O\": 1}, \"37\": {\"O\": 1}, \"38\": {\"O\": 1}, \"39\": {\"O\": 1}}" n_minim_iter=1 energy=-45151.82015680593 stress="1.727711800387036e-05 -4.562378479369432e-13 -1.495176929483744e-13 -4.562378479369432e-13 1.727711761393539e-05 -1.0750141708930584e-13 -1.495176929483744e-13 -1.0750141708930584e-13 1.727711798231334e-05" free_energy=-45151.82015680593 pbc="T T T"
In      -4.25948379       3.01190987       5.70779511        0       0.00194461      -0.00137505       0.00238165
In       7.23277678       1.19296141       1.57525558        1      -0.00194461       0.00137505      -0.00238165
In       1.28619079      -0.90947423       5.21678092        2      -0.00194461       0.00137505      -0.00238165
In      -1.48664650      -2.10243564       3.64152535        3      -0.00000000       0.00000000       0.00000000
In      -1.28619080       4.06312769       3.39601825        4       0.00194461      -0.00137505      -0.00238165
In       4.66039520      -2.87016628       5.46228802        5       0.00194461       0.00275009      -0.00000000
In      -1.28619080       1.33470500       5.46228802        6       0.00194461       0.00275009       0.00000000
In      -1.68710220       7.07503756       1.82076267        7      -0.00194461      -0.00275009      -0.00000000
In       4.25948379       0.14174359       3.88703244        8      -0.00194461       0.00137505       0.00238165
In      -1.48664650       4.20487128      -0.00000000        9      -0.00000000       0.00000000      -0.00000000
In       4.25948379       6.44905051       0.24550709       10      -0.00194461       0.00137505       0.00238165
In      -1.28619080      -2.24417922       7.03754360       11       0.00194461      -0.00137505      -0.00238165
In       4.25948379       2.87016629       1.82076267       12      -0.00194461      -0.00275009      -0.00000000
In       1.68710220       5.11434551       2.06626977       13       0.00194461      -0.00137505       0.00238165
In       4.45993949       0.00000000      -0.00000000       14      -0.00000000       0.00000000       0.00000000
In       1.48664650       2.10243564       3.64152534       15       0.00000000      -0.00000000      -0.00000000
O        0.87572816       4.20587784       3.96156330       16       0.00411799      -0.00636825       0.00631595
O       -2.09756484       3.43031118       5.30139733       17       0.00411798       0.00865390       0.00235709
O       -0.43740389       2.25640012       0.05162025       18       0.00352759       0.00907137       0.00163401
O       -0.87572816      -0.77355354       1.97990994       19      -0.00411798       0.00228565       0.00867305
O        3.93331667       5.00822779       1.92828969       20       0.00678632      -0.00134225       0.00703903
O        2.01326931       2.93660167       1.65987199       21      -0.00678632      -0.00676711       0.00235709
O        2.01326931       6.27649739       0.26841770       22      -0.00678632       0.00542486       0.00468194
O       -2.27315573       5.96756189       3.69314560       23      -0.00737671      -0.00634964       0.00163401
O        3.41069688       1.94847117       7.23143044       24      -0.00352759      -0.00907137      -0.00163401
O        5.24644872      -1.76269060       3.58990509       25       0.00737671       0.00634964      -0.00163401
O        6.38398987       3.27534015       1.71323565       26      -0.00352759       0.00595078      -0.00703903
O        3.67343026       2.31701261       3.90994305       27      -0.00737671       0.00458992       0.00468194
O        0.70013727       4.33003935       6.96301274       28      -0.00737671       0.00175972      -0.00631595
O        2.27315572      -0.12516806       0.32003795       29       0.00737671      -0.00175972       0.00631595
O       -3.41069688       0.92953113       5.56981504       30       0.00352759      -0.00595078       0.00703903
O        5.07085783       0.77456010       1.98165335       31      -0.00411798      -0.00865390      -0.00235709
O        0.96002368       1.26826961       5.62317870       32       0.00678632       0.00676711      -0.00235709
O        3.41069688      -1.01894003       5.62143529       33      -0.00352759       0.00312059       0.00867305
O        2.09756483      -0.00100656       3.32148739       34      -0.00411798       0.00636825      -0.00631595
O        0.96002368      -2.07162611       7.01463299       35       0.00678632      -0.00542486      -0.00468194
O       -0.70013727       1.88785867       3.37310764       36       0.00737671      -0.00458992      -0.00468194
O       -0.96002368      -0.80335650       5.35476100       37      -0.00678632       0.00134225      -0.00703903
O       -0.43740389       5.22381131       1.66161540       38       0.00352759      -0.00312059      -0.00867305
O        3.84902115       4.97842482       5.30314074       39       0.00411798      -0.00228565      -0.00867305
