40
Lattice="9.608648358949607 7.530948719000118e-10 3.382706001466851e-15 -3.2028827870265633 9.059120549949313 -1.3044219177650564e-09 -3.2028827859615268 -4.529560274221542 7.845428533071372" Properties=species:S:1:pos:R:3:spacegroup_kinds:I:1:forces:R:3 spacegroup="P 1" unit_cell=conventional occupancy="_JSON {\"0\": {\"In\": 1}, \"1\": {\"In\": 1}, \"2\": {\"In\": 1}, \"3\": {\"In\": 1}, \"4\": {\"In\": 1}, \"5\": {\"In\": 1}, \"6\": {\"In\": 1}, \"7\": {\"In\": 1}, \"8\": {\"In\": 1}, \"9\": {\"In\": 1}, \"10\": {\"In\": 1}, \"11\": {\"In\": 1}, \"12\": {\"In\": 1}, \"13\": {\"In\": 1}, \"14\": {\"In\": 1}, \"15\": {\"In\": 1}, \"16\": {\"O\": 1}, \"17\": {\"O\": 1}, \"18\": {\"O\": 1}, \"19\": {\"O\": 1}, \"20\": {\"O\": 1}, \"21\": {\"O\": 1}, \"22\": {\"O\": 1}, \"23\": {\"O\": 1}, \"24\": {\"O\": 1}, \"25\": {\"O\": 1}, \"26\": {\"O\": 1}, \"27\": {\"O\": 1}, \"28\": {\"O\": 1}, \"29\": {\"O\": 1}, \"30\": {\"O\": 1}, \"31\": {\"O\": 1}, \"32\": {\"O\": 1}, \"33\": {\"O\": 1}, \"34\": {\"O\": 1}, \"35\": {\"O\": 1}, \"36\": {\"O\": 1}, \"37\": {\"O\": 1}, \"38\": {\"O\": 1}, \"39\": {\"O\": 1}}" n_minim_iter=6 energy=-45143.86159854259 stress="0.11610355764666107 -3.3002063661556894e-13 -1.5823535182497998e-13 -3.3002063661556894e-13 0.11610355764712951 -2.9612236337981115e-13 -1.5823535182497998e-13 -2.9612236337981115e-13 0.11610355764623566" free_energy=-45143.86159854259 pbc="T T T"
In      -4.48312776       3.17005004       6.27745507        0       0.00059708      -0.00042220       0.00073127
In       7.68601054       1.35951024       1.56797346        1      -0.00059708       0.00042220      -0.00073127
In       1.28024497      -0.90526990       5.49068772        2      -0.00059708       0.00042220      -0.00073127
In      -1.60144139      -2.26478014       3.92271426        3       0.00000000       0.00000000       0.00000000
In      -1.28024497       4.30244011       3.52933059        4       0.00059708      -0.00042220      -0.00073127
In       5.12552060      -2.94292986       5.88407140        5       0.00059708       0.00084439       0.00000000
In      -1.28024497       1.58663041       5.88407140        6       0.00059708       0.00084439      -0.00000000
In      -1.92263782       7.47249014       1.96135713        7      -0.00059708      -0.00084439       0.00000000
In       4.48312775       0.22712017       4.31609794        8      -0.00059708       0.00042220       0.00073127
In      -1.60144140       4.52956028      -0.00000000        9      -0.00000000      -0.00000000       0.00000000
In       4.48312775       7.02146058       0.39338367       10      -0.00059708       0.00042220       0.00073127
In      -1.28024497      -2.49190030       7.45204486       11       0.00059708      -0.00042220      -0.00073127
In       4.48312775       2.94292987       1.96135713       12      -0.00059708      -0.00084439      -0.00000000
In       1.92263781       5.43483018       2.35474080       13       0.00059708      -0.00042220       0.00073127
In       4.80432418       0.00000000      -0.00000000       14       0.00000000      -0.00000000       0.00000000
In       1.60144139       2.26478014       3.92271426       15      -0.00000000       0.00000000      -0.00000000
O        1.06601542       4.53309225       4.23062880       16      -0.00955746       0.00033352      -0.00019859
O       -2.13686737       3.66206603       5.72705535       17      -0.00955746      -0.00033875      -0.00018954
O       -0.45921297       2.47578523      -0.06367456       18      -0.00319075      -0.00484069       0.00760806
O       -1.06601542      -0.86396227       2.11225562       19       0.00955746      -0.00000523      -0.00038813
O        4.16491809       5.35676002       2.17593018       20       0.00286645       0.00439774      -0.00799619
O        2.24084748       3.05874933       1.80434108       21      -0.00286645       0.00912378      -0.00018954
O        2.24084748       6.82757097       0.37158909       22      -0.00286645      -0.00472603      -0.00780665
O       -2.48726369       6.40202881       3.85903970       23       0.00350026       0.00462183       0.00760806
O        3.66209575       2.05377505       7.90910309       24       0.00319075       0.00484069      -0.00760806
O        5.69014647      -1.87246853       3.98638882       25      -0.00350026      -0.00462183      -0.00760806
O        6.86497854       3.44752897       1.74678408       26       0.00319075       0.00416843       0.00799619
O        3.91850188       2.40579216       4.29430336       27       0.00350026       0.00427786      -0.00780665
O        0.71561909       4.78085987       7.53751399       28       0.00350026      -0.00889969       0.00019859
O        2.48726369      -0.25129959       0.30791453       29      -0.00350026       0.00889969      -0.00019859
O       -3.66209576       1.08203131       6.09864445       30      -0.00319075      -0.00416843      -0.00799619
O        5.33975015       0.86749425       2.11837318       31       0.00955746       0.00033875       0.00018954
O        0.96203530       1.47081094       6.04108744       32       0.00286645      -0.00912378       0.00018954
O        3.66209575      -0.97174373       6.03496989       33       0.00319075      -0.00900912      -0.00038813
O        2.13686736      -0.00353197       3.61479973       34       0.00955746      -0.00033352       0.00019859
O        0.96203530      -2.29801069       7.47383943       35       0.00286645       0.00472603       0.00780665
O       -0.71561910       2.12376812       3.55112517       36      -0.00350026      -0.00427786       0.00780665
O       -0.96203530      -0.82719975       5.66949835       37      -0.00286645      -0.00439774       0.00799619
O       -0.45921297       5.50130401       1.81045864       38      -0.00319075       0.00900912       0.00038813
O        4.26889821       5.39352255       5.73317290       39      -0.00955746       0.00000523       0.00038813
