40
Lattice="8.844918475532813 6.932387256008117e-10 -4.739262287094573e-15 -2.94830615916453 8.339069110557498 -1.2007269021331126e-09 -2.948306158184137 -4.169534554585507 7.221845694457382" Properties=species:S:1:pos:R:3:spacegroup_kinds:I:1:forces:R:3 spacegroup="P 1" unit_cell=conventional occupancy="_JSON {\"0\": {\"In\": 1}, \"1\": {\"In\": 1}, \"2\": {\"In\": 1}, \"3\": {\"In\": 1}, \"4\": {\"In\": 1}, \"5\": {\"In\": 1}, \"6\": {\"In\": 1}, \"7\": {\"In\": 1}, \"8\": {\"In\": 1}, \"9\": {\"In\": 1}, \"10\": {\"In\": 1}, \"11\": {\"In\": 1}, \"12\": {\"In\": 1}, \"13\": {\"In\": 1}, \"14\": {\"In\": 1}, \"15\": {\"In\": 1}, \"16\": {\"O\": 1}, \"17\": {\"O\": 1}, \"18\": {\"O\": 1}, \"19\": {\"O\": 1}, \"20\": {\"O\": 1}, \"21\": {\"O\": 1}, \"22\": {\"O\": 1}, \"23\": {\"O\": 1}, \"24\": {\"O\": 1}, \"25\": {\"O\": 1}, \"26\": {\"O\": 1}, \"27\": {\"O\": 1}, \"28\": {\"O\": 1}, \"29\": {\"O\": 1}, \"30\": {\"O\": 1}, \"31\": {\"O\": 1}, \"32\": {\"O\": 1}, \"33\": {\"O\": 1}, \"34\": {\"O\": 1}, \"35\": {\"O\": 1}, \"36\": {\"O\": 1}, \"37\": {\"O\": 1}, \"38\": {\"O\": 1}, \"39\": {\"O\": 1}}" n_minim_iter=1 energy=-45151.82015680593 stress="1.727711800387036e-05 -4.562378479369432e-13 -1.495176929483744e-13 -4.562378479369432e-13 1.727711761393539e-05 -1.0750141708930584e-13 -1.495176929483744e-13 -1.0750141708930584e-13 1.727711798231334e-05" free_energy=-45151.82015680593 pbc="T T T"
In      -4.22368812       2.98659851       5.65982818        0       0.00194461      -0.00137505       0.00238165
In       7.17199427       1.18293605       1.56201751        1      -0.00194461       0.00137505      -0.00238165
In       1.27538196      -0.90183123       5.17294036        2      -0.00194461       0.00137505      -0.00238165
In      -1.47415308      -2.08476728       3.61092284        3      -0.00000000       0.00000000       0.00000000
In      -1.27538196       4.02898215       3.36747893        4       0.00194461      -0.00137505      -0.00238165
In       4.62123036      -2.84604610       5.41638427        5       0.00194461       0.00275009      -0.00000000
In      -1.27538196       1.32348846       5.41638427        6       0.00194461       0.00275009       0.00000000
In      -1.67292420       7.01558066       1.80546142        7      -0.00194461      -0.00275009      -0.00000000
In       4.22368811       0.14055241       3.85436676        8      -0.00194461       0.00137505       0.00238165
In      -1.47415308       4.16953456      -0.00000000        9      -0.00000000       0.00000000      -0.00000000
In       4.22368811       6.39485424       0.24344391       10      -0.00194461       0.00137505       0.00238165
In      -1.27538196      -2.22531968       6.97840178       11       0.00194461      -0.00137505      -0.00238165
In       4.22368811       2.84604610       1.80546142       12      -0.00194461      -0.00275009      -0.00000000
In       1.67292420       5.07136579       2.04890533       13       0.00194461      -0.00137505       0.00238165
In       4.42245924       0.00000000      -0.00000000       14      -0.00000000       0.00000000       0.00000000
In       1.47415308       2.08476728       3.61092284       15       0.00000000      -0.00000000      -0.00000000
O        0.86836875       4.17053266       3.92827128       16       0.00411799      -0.00636825       0.00631595
O       -2.07993741       3.40148367       5.25684567       17       0.00411798       0.00865390       0.00235709
O       -0.43372805       2.23743787       0.05118645       18       0.00352759       0.00907137       0.00163401
O       -0.86836875      -0.76705278       1.96327126       19      -0.00411798       0.00228565       0.00867305
O        3.90026203       4.96613985       1.91208481       20       0.00678632      -0.00134225       0.00703903
O        1.99635028       2.91192318       1.64592282       21      -0.00678632      -0.00676711       0.00235709
O        1.99635028       6.22375123       0.26616198       22      -0.00678632       0.00542486       0.00468194
O       -2.25405267       5.91741194       3.66210929       23      -0.00737671      -0.00634964       0.00163401
O        3.38203421       1.93209669       7.17065924       24      -0.00352759      -0.00907137      -0.00163401
O        5.20235883      -1.74787738       3.55973640       25       0.00737671       0.00634964      -0.00163401
O        6.33034036       3.24781498       1.69883803       26      -0.00352759       0.00595078      -0.00703903
O        3.64255964       2.29754099       3.87708483       27      -0.00737671       0.00458992       0.00468194
O        0.69425348       4.29365074       6.90449726       28      -0.00737671       0.00175972      -0.00631595
O        2.25405267      -0.12411618       0.31734843       29       0.00737671      -0.00175972       0.00631595
O       -3.38203421       0.92171958       5.52300766       30       0.00352759      -0.00595078       0.00703903
O        5.02824356       0.76805088       1.96500002       31      -0.00411798      -0.00865390      -0.00235709
O        0.95195587       1.25761138       5.57592286       32       0.00678632       0.00676711      -0.00235709
O        3.38203421      -1.01037710       5.57419411       33      -0.00352759       0.00312059       0.00867305
O        2.07993741      -0.00099810       3.29357441       34      -0.00411798       0.00636825      -0.00631595
O        0.95195587      -2.05421667       6.95568371       35       0.00678632      -0.00542486      -0.00468194
O       -0.69425349       1.87199357       3.34476086       36       0.00737671      -0.00458992      -0.00468194
O       -0.95195587      -0.79660529       5.30976088       37      -0.00678632       0.00134225      -0.00703903
O       -0.43372805       5.17991166       1.64765158       38       0.00352759      -0.00312059      -0.00867305
O        3.81667491       4.93658734       5.25857443       39       0.00411798      -0.00228565      -0.00867305
