40
Lattice="9.207813709320973 7.216827203726308e-10 -1.4209545598250672e-15 -3.069271237120736 8.681210018110523 -1.2499962780770816e-09 -3.0692712361001226 -4.340605008333574 7.518148412105025" Properties=species:S:1:pos:R:3:spacegroup_kinds:I:1:forces:R:3 spacegroup="P 1" unit_cell=conventional occupancy="_JSON {\"0\": {\"In\": 1}, \"1\": {\"In\": 1}, \"2\": {\"In\": 1}, \"3\": {\"In\": 1}, \"4\": {\"In\": 1}, \"5\": {\"In\": 1}, \"6\": {\"In\": 1}, \"7\": {\"In\": 1}, \"8\": {\"In\": 1}, \"9\": {\"In\": 1}, \"10\": {\"In\": 1}, \"11\": {\"In\": 1}, \"12\": {\"In\": 1}, \"13\": {\"In\": 1}, \"14\": {\"In\": 1}, \"15\": {\"In\": 1}, \"16\": {\"O\": 1}, \"17\": {\"O\": 1}, \"18\": {\"O\": 1}, \"19\": {\"O\": 1}, \"20\": {\"O\": 1}, \"21\": {\"O\": 1}, \"22\": {\"O\": 1}, \"23\": {\"O\": 1}, \"24\": {\"O\": 1}, \"25\": {\"O\": 1}, \"26\": {\"O\": 1}, \"27\": {\"O\": 1}, \"28\": {\"O\": 1}, \"29\": {\"O\": 1}, \"30\": {\"O\": 1}, \"31\": {\"O\": 1}, \"32\": {\"O\": 1}, \"33\": {\"O\": 1}, \"34\": {\"O\": 1}, \"35\": {\"O\": 1}, \"36\": {\"O\": 1}, \"37\": {\"O\": 1}, \"38\": {\"O\": 1}, \"39\": {\"O\": 1}}" n_minim_iter=7 energy=-45150.472373116456 stress="0.04751470718978078 6.000432850285685e-14 -2.5865460084226933e-13 6.000432850285685e-14 0.04751470719047902 -4.640142853563439e-13 -2.5865460084226933e-13 -4.640142853563439e-13 0.04751470719056902" free_energy=-45150.472373116456 pbc="T T T"
In      -4.36643589       3.08753642       5.92945266        0      -0.00317235       0.00224319      -0.00388531
In       7.43570712       1.25306859       1.58869575        1       0.00317235      -0.00224319       0.00388531
In       1.29716465      -0.91723392       5.34776995        2       0.00317235      -0.00224319       0.00388531
In      -1.53463562      -2.17030250       3.75907420        3       0.00000000      -0.00000000      -0.00000000
In      -1.29716465       4.17268768       3.46823285        4      -0.00317235       0.00224319       0.00388531
In       4.84137782      -2.91961909       5.63861131        5      -0.00317235      -0.00448637       0.00000000
In      -1.29716465       1.42098592       5.63861131        6      -0.00317235      -0.00448637      -0.00000000
In      -1.77210659       7.26022410       1.87953710        7       0.00317235       0.00448637      -0.00000000
In       4.36643588       0.16791734       4.04991556        8       0.00317235      -0.00224319      -0.00388531
In      -1.53463562       4.34060501      -0.00000000        9       0.00000000       0.00000000      -0.00000000
In       4.36643588       6.67882485       0.29084135       10       0.00317235      -0.00224319      -0.00388531
In      -1.29716465      -2.33821984       7.22730706       11      -0.00317235       0.00224319       0.00388531
In       4.36643588       2.91961909       1.87953710       12       0.00317235       0.00448637      -0.00000000
In       1.77210659       5.25783893       2.17037845       13      -0.00317235       0.00224319      -0.00388531
In       4.60390685       0.00000000      -0.00000000       14       0.00000000      -0.00000000      -0.00000000
In       1.53463562       2.17030251       3.75907420       15       0.00000000      -0.00000000       0.00000000
O        0.95816344       4.34620543       4.07919423       16       0.00183814       0.00651957      -0.00458613
O       -2.11110780       3.52988563       5.47370119       17       0.00183814      -0.00723149      -0.00335305
O       -0.43968563       2.34801168       0.00261850       18      -0.00005849      -0.00589037      -0.00567594
O       -0.95816344      -0.80511897       2.03474701       19      -0.00183814      -0.00071192      -0.00793918
O        4.03171068       5.14723577       2.03212850       20      -0.00743063      -0.00256509      -0.00226325
O        2.10683179       2.98404548       1.71462698       21       0.00743063       0.00067749      -0.00335305
O        2.10683179       6.50379530       0.31750152       22       0.00743063      -0.00324257       0.00108981
O       -2.36028851       6.14277654       3.76169271       23       0.00553400       0.00201860      -0.00567594
O        3.50895686       1.99259334       7.51552990       24       0.00005849       0.00589037       0.00567594
O        5.42955975      -1.80217153       3.75645570       25      -0.00553400      -0.00201860       0.00567594
O        6.57822810       3.34657604       1.72694570       26       0.00005849      -0.00786069       0.00226325
O        3.77825396       2.35663569       4.07657572       27       0.00553400      -0.00592481       0.00108981
O        0.70898272       4.52240280       7.19802838       28       0.00553400       0.00390620       0.00458613
O        2.36028851      -0.18179779       0.32012002       29      -0.00553400      -0.00390620      -0.00458613
O       -3.50895687       0.99402898       5.79120271       30      -0.00005849       0.00786069      -0.00226325
O        5.18037903       0.81071939       2.04444722       31      -0.00183814       0.00723149       0.00335305
O        0.96243944       1.35655953       5.80352142       32      -0.00743063      -0.00067749       0.00335305
O        3.50895686      -0.99856436       5.79382121       33       0.00005849       0.00197032      -0.00793918
O        2.11110779      -0.00560042       3.43895418       34      -0.00183814      -0.00651958       0.00458613
O        0.96243944      -2.16319029       7.20064689       35      -0.00743063       0.00324257      -0.00108981
O       -0.70898273       1.98396933       3.44157268       36      -0.00553400       0.00592481      -0.00108981
O       -0.96243945      -0.80663076       5.48601990       37       0.00743063       0.00256509       0.00226325
O       -0.43968563       5.33916937       1.72432719       38      -0.00005849      -0.00197032       0.00793918
O        4.02743467       5.14572398       5.48340140       39       0.00183814       0.00071192       0.00793918
