40
Lattice="9.277047990974145 7.271091099916916e-10 -1.431638829871897e-15 -3.092349331010243 8.746484724838764 -1.2593950992428701e-09 -3.092349329981955 -4.3732423616922675 7.574677966362526" Properties=species:S:1:pos:R:3:spacegroup_kinds:I:1:forces:R:3 spacegroup="P 1" unit_cell=conventional occupancy="_JSON {\"0\": {\"In\": 1}, \"1\": {\"In\": 1}, \"2\": {\"In\": 1}, \"3\": {\"In\": 1}, \"4\": {\"In\": 1}, \"5\": {\"In\": 1}, \"6\": {\"In\": 1}, \"7\": {\"In\": 1}, \"8\": {\"In\": 1}, \"9\": {\"In\": 1}, \"10\": {\"In\": 1}, \"11\": {\"In\": 1}, \"12\": {\"In\": 1}, \"13\": {\"In\": 1}, \"14\": {\"In\": 1}, \"15\": {\"In\": 1}, \"16\": {\"O\": 1}, \"17\": {\"O\": 1}, \"18\": {\"O\": 1}, \"19\": {\"O\": 1}, \"20\": {\"O\": 1}, \"21\": {\"O\": 1}, \"22\": {\"O\": 1}, \"23\": {\"O\": 1}, \"24\": {\"O\": 1}, \"25\": {\"O\": 1}, \"26\": {\"O\": 1}, \"27\": {\"O\": 1}, \"28\": {\"O\": 1}, \"29\": {\"O\": 1}, \"30\": {\"O\": 1}, \"31\": {\"O\": 1}, \"32\": {\"O\": 1}, \"33\": {\"O\": 1}, \"34\": {\"O\": 1}, \"35\": {\"O\": 1}, \"36\": {\"O\": 1}, \"37\": {\"O\": 1}, \"38\": {\"O\": 1}, \"39\": {\"O\": 1}}" n_minim_iter=7 energy=-45150.472373116456 stress="0.04751470718978078 6.000432850285685e-14 -2.5865460084226933e-13 6.000432850285685e-14 0.04751470719047902 -4.640142853563439e-13 -2.5865460084226933e-13 -4.640142853563439e-13 0.04751470719056902" free_energy=-45150.472373116456 pbc="T T T"
In      -4.39926746       3.11075186       5.97403668        0      -0.00317235       0.00224319      -0.00388531
In       7.49161679       1.26249051       1.60064128        1       0.00317235      -0.00224319       0.00388531
In       1.30691813      -0.92413067       5.38798026        2       0.00317235      -0.00224319       0.00388531
In      -1.54617467      -2.18662118       3.78733898        3       0.00000000      -0.00000000      -0.00000000
In      -1.30691813       4.20406245       3.49431077        4      -0.00317235       0.00224319       0.00388531
In       4.87778053      -2.94157193       5.68100847        5      -0.00317235      -0.00448637       0.00000000
In      -1.30691813       1.43167043       5.68100847        6      -0.00317235      -0.00448637      -0.00000000
In      -1.78543120       7.31481430       1.89366949        7       0.00317235       0.00448637      -0.00000000
In       4.39926746       0.16917992       4.08036719        8       0.00317235      -0.00224319      -0.00388531
In      -1.54617467       4.37324236      -0.00000000        9       0.00000000       0.00000000      -0.00000000
In       4.39926746       6.72904346       0.29302821       10       0.00317235      -0.00224319      -0.00388531
In      -1.30691813      -2.35580110       7.28164975       11      -0.00317235       0.00224319       0.00388531
In       4.39926746       2.94157194       1.89366949       12       0.00317235       0.00448637      -0.00000000
In       1.78543120       5.29737304       2.18669770       13      -0.00317235       0.00224319      -0.00388531
In       4.63852399       0.00000000      -0.00000000       14       0.00000000      -0.00000000      -0.00000000
In       1.54617466       2.18662118       3.78733898       15       0.00000000      -0.00000000       0.00000000
O        0.96536795       4.37888489       4.10986602       16       0.00183814       0.00651957      -0.00458613
O       -2.12698139       3.55642712       5.51485838       17       0.00183814      -0.00723149      -0.00335305
O       -0.44299166       2.36566656       0.00263819       18      -0.00005849      -0.00589037      -0.00567594
O       -0.96536795      -0.81117272       2.05004643       19      -0.00183814      -0.00071192      -0.00793918
O        4.06202543       5.18593825       2.04740824       20      -0.00743063      -0.00256509      -0.00226325
O        2.12267323       3.00648276       1.72751940       21       0.00743063       0.00067749      -0.00335305
O        2.12267323       6.55269785       0.31988884       22       0.00743063      -0.00324257       0.00108981
O       -2.37803571       6.18896457       3.78997718       23       0.00553400       0.00201860      -0.00567594
O        3.53534099       2.00757581       7.57203977       24       0.00005849       0.00589037       0.00567594
O        5.47038504      -1.81572220       3.78470079       25      -0.00553400      -0.00201860       0.00567594
O        6.62769032       3.37173921       1.73993074       26       0.00005849      -0.00786069       0.00226325
O        3.80666295       2.37435542       4.10722782       27       0.00553400      -0.00592481       0.00108981
O        0.71431362       4.55640711       7.25215093       28       0.00553400       0.00390620       0.00458613
O        2.37803571      -0.18316474       0.32252703       29      -0.00553400      -0.00390620      -0.00458613
O       -3.53534099       1.00150316       5.83474722       30      -0.00005849       0.00786069      -0.00226325
O        5.21933071       0.81681525       2.05981958       31      -0.00183814       0.00723149       0.00335305
O        0.96967610       1.36675961       5.84715856       32      -0.00743063      -0.00067749       0.00335305
O        3.53534099      -1.00607264       5.83738542       33       0.00005849       0.00197032      -0.00793918
O        2.12698138      -0.00564253       3.46481195       34      -0.00183814      -0.00651958       0.00458613
O        0.96967610      -2.17945549       7.25478912       35      -0.00743063       0.00324257      -0.00108981
O       -0.71431362       1.99888695       3.46745014       36      -0.00553400       0.00592481      -0.00108981
O       -0.96967610      -0.81269588       5.52726972       37       0.00743063       0.00256509       0.00226325
O       -0.44299166       5.37931501       1.73729254       38      -0.00005849      -0.00197032       0.00793918
O        4.05771728       5.18441509       5.52463153       39       0.00183814       0.00071192       0.00793918
