40
Lattice="8.365853953084615 6.556892475404086e-10 -3.305942087394623e-15 -2.788617984979728 7.887402747304658 -1.1357081426887508e-09 -2.7886179840524408 -3.943701372996621 6.830691149802146" Properties=species:S:1:pos:R:3:spacegroup_kinds:I:1:forces:R:3 spacegroup="P 1" unit_cell=conventional occupancy="_JSON {\"0\": {\"In\": 1}, \"1\": {\"In\": 1}, \"2\": {\"In\": 1}, \"3\": {\"In\": 1}, \"4\": {\"In\": 1}, \"5\": {\"In\": 1}, \"6\": {\"In\": 1}, \"7\": {\"In\": 1}, \"8\": {\"In\": 1}, \"9\": {\"In\": 1}, \"10\": {\"In\": 1}, \"11\": {\"In\": 1}, \"12\": {\"In\": 1}, \"13\": {\"In\": 1}, \"14\": {\"In\": 1}, \"15\": {\"In\": 1}, \"16\": {\"O\": 1}, \"17\": {\"O\": 1}, \"18\": {\"O\": 1}, \"19\": {\"O\": 1}, \"20\": {\"O\": 1}, \"21\": {\"O\": 1}, \"22\": {\"O\": 1}, \"23\": {\"O\": 1}, \"24\": {\"O\": 1}, \"25\": {\"O\": 1}, \"26\": {\"O\": 1}, \"27\": {\"O\": 1}, \"28\": {\"O\": 1}, \"29\": {\"O\": 1}, \"30\": {\"O\": 1}, \"31\": {\"O\": 1}, \"32\": {\"O\": 1}, \"33\": {\"O\": 1}, \"34\": {\"O\": 1}, \"35\": {\"O\": 1}, \"36\": {\"O\": 1}, \"37\": {\"O\": 1}, \"38\": {\"O\": 1}, \"39\": {\"O\": 1}}" n_minim_iter=1 energy=-45144.11848246136 stress="-0.21261609112117583 -6.153204775021187e-13 -7.314037644465069e-13 -6.153204775021187e-13 -0.21261609112106133 -5.855107206734534e-13 -7.314037644465069e-13 -5.855107206734534e-13 -0.21261609112264876" free_energy=-45144.11848246136 pbc="T T T"
In      -3.99213506       2.82286577       5.35668978        0      -0.00178112       0.00125944      -0.00218141
In       6.78075304       1.12083560       1.47400136        1       0.00178112      -0.00125944       0.00218141
In       1.20351707      -0.85101508       4.88934694        2       0.00178112      -0.00125944       0.00218141
In      -1.39430899      -1.97185069       3.41534557        3      -0.00000000       0.00000000       0.00000000
In      -1.20351708       3.80879112       3.18167415        4      -0.00178112       0.00125944       0.00218141
In       4.37371889      -2.68795551       5.12301836        5      -0.00178112      -0.00251888       0.00000000
In      -1.20351708       1.25574586       5.12301836        6      -0.00178112      -0.00251888      -0.00000000
In      -1.58510091       6.63165689       1.70767278        7       0.00178112       0.00251888      -0.00000000
In       3.99213506       0.13491026       3.64901700        8       0.00178112      -0.00125944      -0.00218141
In      -1.39430899       3.94370138      -0.00000000        9      -0.00000000      -0.00000000       0.00000000
In       3.99213506       6.05046232       0.23367142       10       0.00178112      -0.00125944      -0.00218141
In      -1.20351708      -2.10676094       6.59701972       11      -0.00178112       0.00125944       0.00218141
In       3.99213506       2.68795551       1.70767278       12       0.00178112       0.00251888       0.00000000
In       1.58510091       4.79471646       1.94134421       13      -0.00178112       0.00125944      -0.00218141
In       4.18292698       0.00000000      -0.00000000       14       0.00000000       0.00000000      -0.00000000
In       1.39430899       1.97185069       3.41534557       15       0.00000000      -0.00000000       0.00000000
O        0.80314995       3.93771680       3.73936140       16      -0.05839700      -0.04108371       0.07395728
O       -1.98546804       3.24137426       4.96619324       17      -0.05839700       0.08459074      -0.00139910
O       -0.40008602       2.12033989       0.07719059       18       0.02155315       0.02805744       0.09651944
O       -0.80314995      -0.70831169       1.87486350       19       0.05839700       0.04350703       0.07255818
O        3.71781963       4.69657908       1.79767291       20       0.09921858       0.01221850      -0.02396126
O        1.85941633       2.76330982       1.55084767       21      -0.09921858       0.02686031      -0.00139910
O        1.85941633       5.87697064       0.24682524       22      -0.09921858      -0.01464181      -0.02256216
O       -2.13243762       5.58597682       3.49253616       23      -0.01926843      -0.02967298       0.09651944
O        3.18870400       1.82336149       6.75350056       24      -0.02155315      -0.02805744      -0.09651944
O        4.92105561      -1.64227544       3.33815498       25       0.01926843       0.02967298      -0.09651944
O        5.97732199       3.09886964       1.61767266       26      -0.02155315       0.09761701       0.02396126
O        3.44479834       2.20348732       3.66217081       27      -0.01926843       0.09842478      -0.02256216
O        0.65618036       4.04163999       6.50667532       28      -0.01926843      -0.06875179      -0.07395728
O        2.13243762      -0.09793861       0.32401583       29       0.01926843       0.06875179       0.07395728
O       -3.18870401       0.84483174       5.21301848       30       0.02155315      -0.09761701      -0.02396126
O        4.77408602       0.70232712       1.86449790       31       0.05839700      -0.08459074       0.00139910
O        0.92920165       1.18039156       5.27984347       32       0.09921858      -0.02686031       0.00139910
O        3.18870400      -0.97852975       5.29020907       33      -0.02155315      -0.06955957       0.07255818
O        1.98546803       0.00598458       3.09132975       34       0.05839700       0.04108371      -0.07395728
O        0.92920165      -1.93326926       6.58386591       35       0.09921858       0.01464181       0.02256216
O       -0.65618036       1.74021406       3.16852033       36       0.01926843      -0.09842478       0.02256216
O       -0.92920165      -0.75287770       5.03301824       37      -0.09921858      -0.01221850       0.02396126
O       -0.40008602       4.92223113       1.54048207       38       0.02155315       0.06955957      -0.07255818
O        3.59176793       4.65201307       4.95582765       39      -0.05839700      -0.04350703      -0.07255818
40
Lattice="8.365853953084619 6.556892475404089e-10 -3.3059420873946167e-15 -2.788617984979729 7.8874027473046615 -1.1357081426887512e-09 -2.7886179840524417 -3.943701372996623 6.830691149802149" Properties=species:S:1:pos:R:3:spacegroup_kinds:I:1:forces:R:3 spacegroup="P 1" unit_cell=conventional occupancy="_JSON {\"0\": {\"In\": 1}, \"1\": {\"In\": 1}, \"2\": {\"In\": 1}, \"3\": {\"In\": 1}, \"4\": {\"In\": 1}, \"5\": {\"In\": 1}, \"6\": {\"In\": 1}, \"7\": {\"In\": 1}, \"8\": {\"In\": 1}, \"9\": {\"In\": 1}, \"10\": {\"In\": 1}, \"11\": {\"In\": 1}, \"12\": {\"In\": 1}, \"13\": {\"In\": 1}, \"14\": {\"In\": 1}, \"15\": {\"In\": 1}, \"16\": {\"O\": 1}, \"17\": {\"O\": 1}, \"18\": {\"O\": 1}, \"19\": {\"O\": 1}, \"20\": {\"O\": 1}, \"21\": {\"O\": 1}, \"22\": {\"O\": 1}, \"23\": {\"O\": 1}, \"24\": {\"O\": 1}, \"25\": {\"O\": 1}, \"26\": {\"O\": 1}, \"27\": {\"O\": 1}, \"28\": {\"O\": 1}, \"29\": {\"O\": 1}, \"30\": {\"O\": 1}, \"31\": {\"O\": 1}, \"32\": {\"O\": 1}, \"33\": {\"O\": 1}, \"34\": {\"O\": 1}, \"35\": {\"O\": 1}, \"36\": {\"O\": 1}, \"37\": {\"O\": 1}, \"38\": {\"O\": 1}, \"39\": {\"O\": 1}}" n_minim_iter=2 energy=-45144.12885057883 stress="-0.21105282030641412 -7.870889173292057e-13 2.185790197144014e-13 -7.870889173292057e-13 -0.21105282030585407 -3.090251029271261e-13 2.185790197144014e-13 -3.090251029271261e-13 -0.21105282030527023" free_energy=-45144.12885057883 pbc="T T T"
In      -3.99226228       2.82295573       5.35653397        0       0.02946460      -0.02083462       0.03608662
In       6.78088026       1.12074564       1.47415718        1      -0.02946460       0.02083462      -0.03608662
In       1.20364430      -0.85110504       4.88950275        2      -0.02946460       0.02083462      -0.03608662
In      -1.39430899      -1.97185069       3.41534557        3      -0.00000000      -0.00000000       0.00000000
In      -1.20364430       3.80888108       3.18182996        4       0.02946460      -0.02083462      -0.03608662
In       4.37359167      -2.68813543       5.12301836        5       0.02946460       0.04166924      -0.00000000
In      -1.20364430       1.25556594       5.12301836        6       0.02946460       0.04166924      -0.00000000
In      -1.58497369       6.63183681       1.70767278        7      -0.02946460      -0.04166924      -0.00000000
In       3.99226228       0.13482030       3.64886118        8      -0.02946460       0.02083462       0.03608662
In      -1.39430899       3.94370138      -0.00000000        9      -0.00000000       0.00000000      -0.00000000
In       3.99226228       6.05037236       0.23351560       10      -0.02946460       0.02083462       0.03608662
In      -1.20364430      -2.10667098       6.59717554       11       0.02946460      -0.02083462      -0.03608662
In       3.99226228       2.68813543       1.70767278       12      -0.02946460      -0.04166924       0.00000000
In       1.58497369       4.79480642       1.94118839       13       0.02946460      -0.02083462       0.03608662
In       4.18292698       0.00000000      -0.00000000       14      -0.00000000      -0.00000000       0.00000000
In       1.39430899       1.97185069       3.41534557       15      -0.00000000      -0.00000000       0.00000000
O        0.79897873       3.93478224       3.74464406       16      -0.03392215      -0.00240490      -0.00567443
O       -1.98963925       3.24741646       4.96609331       17      -0.03392215      -0.00371175       0.00491992
O       -0.39854651       2.12234399       0.08408483       18      -0.01707422      -0.01562503       0.02555434
O       -0.79897874      -0.70520405       1.88004622       19       0.03392215      -0.00611665      -0.00075451
O        3.72490668       4.69745183       1.79596139       20       0.00780792       0.02087046      -0.02630885
O        1.85232929       2.76522841       1.55074773       21      -0.00780792       0.03321936       0.00491992
O        1.85232929       5.87592479       0.24521365       22      -0.00780792      -0.01234890      -0.03122877
O       -2.13381394       5.58385732       3.49943041       23       0.00904002       0.02130607       0.02555434
O        3.18716449       1.82135739       6.74660631       24       0.01707422       0.01562504      -0.02555434
O        4.92243192      -1.64015594       3.33126074       25      -0.00904002      -0.02130607      -0.02555434
O        5.97578248       3.10584229       1.61938418       26       0.01707422       0.01431819       0.02630885
O        3.44342203       2.21051766       3.66055923       27       0.00904002       0.01147768      -0.03122877
O        0.65480404       4.03672915       6.50139266       28       0.00904002      -0.03278375       0.00567443
O        2.13381394      -0.09302777       0.32929849       29      -0.00904002       0.03278375      -0.00567443
O       -3.18716450       0.83785909       5.21130697       30      -0.01707422      -0.01431819      -0.02630885
O        4.77825723       0.69628492       1.86459784       31       0.03392215       0.00371175      -0.00491992
O        0.93628869       1.17847297       5.27994341       32       0.00780792      -0.03321936      -0.00491992
O        3.18716449      -0.98349829       5.29539180       33       0.01707422      -0.02994323      -0.00075451
O        1.98963925       0.00891913       3.08604708       34       0.03392215       0.00240490       0.00567443
O        0.93628869      -1.93222341       6.58547749       35       0.00780792       0.01234890       0.03122877
O       -0.65480405       1.73318372       3.17013192       36      -0.00904002      -0.01147768       0.03122877
O       -0.93628869      -0.75375045       5.03472975       37      -0.00780792      -0.02087046       0.02630885
O       -0.39854651       4.92719967       1.53529934       38      -0.01707422       0.02994323       0.00075451
O        3.58759672       4.64890543       4.95064492       39      -0.03392215       0.00611665       0.00075451
40
Lattice="8.365853953084624 6.556892475404093e-10 -3.3059420873946183e-15 -2.7886179849797306 7.887402747304667 -1.135708142688752e-09 -2.7886179840524434 -3.9437013729966255 6.8306911498021545" Properties=species:S:1:pos:R:3:spacegroup_kinds:I:1:forces:R:3 spacegroup="P 1" unit_cell=conventional occupancy="_JSON {\"0\": {\"In\": 1}, \"1\": {\"In\": 1}, \"2\": {\"In\": 1}, \"3\": {\"In\": 1}, \"4\": {\"In\": 1}, \"5\": {\"In\": 1}, \"6\": {\"In\": 1}, \"7\": {\"In\": 1}, \"8\": {\"In\": 1}, \"9\": {\"In\": 1}, \"10\": {\"In\": 1}, \"11\": {\"In\": 1}, \"12\": {\"In\": 1}, \"13\": {\"In\": 1}, \"14\": {\"In\": 1}, \"15\": {\"In\": 1}, \"16\": {\"O\": 1}, \"17\": {\"O\": 1}, \"18\": {\"O\": 1}, \"19\": {\"O\": 1}, \"20\": {\"O\": 1}, \"21\": {\"O\": 1}, \"22\": {\"O\": 1}, \"23\": {\"O\": 1}, \"24\": {\"O\": 1}, \"25\": {\"O\": 1}, \"26\": {\"O\": 1}, \"27\": {\"O\": 1}, \"28\": {\"O\": 1}, \"29\": {\"O\": 1}, \"30\": {\"O\": 1}, \"31\": {\"O\": 1}, \"32\": {\"O\": 1}, \"33\": {\"O\": 1}, \"34\": {\"O\": 1}, \"35\": {\"O\": 1}, \"36\": {\"O\": 1}, \"37\": {\"O\": 1}, \"38\": {\"O\": 1}, \"39\": {\"O\": 1}}" n_minim_iter=3 energy=-45144.12990548984 stress="-0.21071895438988764 -2.8307593375980286e-13 1.4201361256190567e-13 -2.8307593375980286e-13 -0.21071895439053018 2.245559966557955e-14 1.4201361256190567e-13 2.245559966557955e-14 -0.21071895438942567" free_energy=-45144.12990548984 pbc="T T T"
In      -3.99179273       2.82262371       5.35710905        0       0.01819561      -0.01286624       0.02228498
In       6.78041071       1.12107767       1.47358210        1      -0.01819561       0.01286624      -0.02228498
In       1.20317474      -0.85077302       4.88892767        2      -0.01819561       0.01286624      -0.02228498
In      -1.39430899      -1.97185069       3.41534557        3       0.00000000      -0.00000000      -0.00000000
In      -1.20317475       3.80854905       3.18125488        4       0.01819561      -0.01286624      -0.02228498
In       4.37406122      -2.68747138       5.12301836        5       0.01819561       0.02573248       0.00000000
In      -1.20317475       1.25622999       5.12301836        6       0.01819561       0.02573248       0.00000000
In      -1.58544324       6.63117276       1.70767278        7      -0.01819561      -0.02573248      -0.00000000
In       3.99179273       0.13515232       3.64943626        8      -0.01819561       0.01286624       0.02228498
In      -1.39430899       3.94370138      -0.00000000        9       0.00000000       0.00000000       0.00000000
In       3.99179273       6.05070439       0.23409069       10      -0.01819561       0.01286624       0.02228498
In      -1.20317475      -2.10700301       6.59660046       11       0.01819561      -0.01286624      -0.02228498
In       3.99179273       2.68747139       1.70767278       12      -0.01819561      -0.02573248      -0.00000000
In       1.58544324       4.79447440       1.94176347       13       0.01819561      -0.01286624       0.02228498
In       4.18292698       0.00000000      -0.00000000       14       0.00000000       0.00000000       0.00000000
In       1.39430899       1.97185069       3.41534557       15      -0.00000000       0.00000000      -0.00000000
O        0.79757602       3.93415590       3.74560354       16      -0.01681700       0.01188375      -0.00569192
O       -1.99104196       3.24856056       4.96615600       17      -0.01681700      -0.01087122      -0.00744567
O       -0.39852593       2.12248168       0.08589069       18      -0.00465105      -0.01947385       0.00745452
O       -0.79757603      -0.70468629       1.88106839       19       0.01681700       0.00101253      -0.01313759
O        3.72645292       4.69797668       1.79517770       20      -0.00464382       0.00329134      -0.02059211
O        1.85078305       2.76616953       1.55081043       21       0.00464382       0.01947896      -0.00744567
O        1.85078305       5.87550853       0.24436728       22       0.00464382      -0.01618762      -0.01314644
O       -2.13393690       5.58379202       3.50123626       23       0.01680977       0.01087634       0.00745452
O        3.18714391       1.82121970       6.74480046       24       0.00465105       0.01947385      -0.00745452
O        4.92255488      -1.64009064       3.32945488       25      -0.01680977      -0.01087634      -0.00745452
O        5.97576190       3.10747505       1.62016786       26       0.00465105      -0.00328112       0.02059211
O        3.44329907       2.21211423       3.65971285       27       0.01680977       0.00101764      -0.01314644
O        0.65468109       4.03519788       6.50043318       28       0.01680977      -0.01189397       0.00569192
O        2.13393689      -0.09149650       0.33025797       29      -0.01680977       0.01189397      -0.00569192
O       -3.18714392       0.83622633       5.21052328       30      -0.00465105       0.00328112      -0.02059211
O        4.77965994       0.69514082       1.86453514       31       0.01681700       0.01087122       0.00744567
O        0.93783493       1.17753185       5.27988072       32      -0.00464382      -0.01947896       0.00744567
O        3.18714391      -0.98499336       5.29641397       33       0.00465105      -0.01619273      -0.01313759
O        1.99104196       0.00954548       3.08508760       34       0.01681700      -0.01188375       0.00569192
O        0.93783493      -1.93180715       6.58632387       35      -0.00464382       0.01618762       0.01314644
O       -0.65468109       1.73158715       3.17097829       36      -0.01680977      -0.00101764       0.01314644
O       -0.93783494      -0.75427530       5.03551344       37       0.00464382      -0.00329134       0.02059211
O       -0.39852593       4.92869474       1.53427718       38      -0.00465105       0.01619273       0.01313759
O        3.58619401       4.64838767       4.94962275       39      -0.01681700      -0.00101253       0.01313759
40
Lattice="8.365853953084633 6.5568924754041e-10 -3.305942087394598e-15 -2.7886179849797337 7.887402747304676 -1.1357081426887533e-09 -2.7886179840524465 -3.94370137299663 6.830691149802162" Properties=species:S:1:pos:R:3:spacegroup_kinds:I:1:forces:R:3 spacegroup="P 1" unit_cell=conventional occupancy="_JSON {\"0\": {\"In\": 1}, \"1\": {\"In\": 1}, \"2\": {\"In\": 1}, \"3\": {\"In\": 1}, \"4\": {\"In\": 1}, \"5\": {\"In\": 1}, \"6\": {\"In\": 1}, \"7\": {\"In\": 1}, \"8\": {\"In\": 1}, \"9\": {\"In\": 1}, \"10\": {\"In\": 1}, \"11\": {\"In\": 1}, \"12\": {\"In\": 1}, \"13\": {\"In\": 1}, \"14\": {\"In\": 1}, \"15\": {\"In\": 1}, \"16\": {\"O\": 1}, \"17\": {\"O\": 1}, \"18\": {\"O\": 1}, \"19\": {\"O\": 1}, \"20\": {\"O\": 1}, \"21\": {\"O\": 1}, \"22\": {\"O\": 1}, \"23\": {\"O\": 1}, \"24\": {\"O\": 1}, \"25\": {\"O\": 1}, \"26\": {\"O\": 1}, \"27\": {\"O\": 1}, \"28\": {\"O\": 1}, \"29\": {\"O\": 1}, \"30\": {\"O\": 1}, \"31\": {\"O\": 1}, \"32\": {\"O\": 1}, \"33\": {\"O\": 1}, \"34\": {\"O\": 1}, \"35\": {\"O\": 1}, \"36\": {\"O\": 1}, \"37\": {\"O\": 1}, \"38\": {\"O\": 1}, \"39\": {\"O\": 1}}" n_minim_iter=4 energy=-45144.13030212993 stress="-0.21058658872052102 2.1824328431068622e-13 -2.7108848023291524e-13 2.1824328431068622e-13 -0.2105865887197291 1.4523080999984265e-13 -2.7108848023291524e-13 1.4523080999984265e-13 -0.2105865887197379" free_energy=-45144.13030212993 pbc="T T T"
In      -3.99129513       2.82227185       5.35771848        0       0.00508153      -0.00359318       0.00622358
In       6.77991311       1.12142952       1.47297267        1      -0.00508153       0.00359318      -0.00622358
In       1.20267715      -0.85042116       4.88831824        2      -0.00508153       0.00359318      -0.00622358
In      -1.39430899      -1.97185069       3.41534557        3       0.00000000      -0.00000000       0.00000000
In      -1.20267715       3.80819720       3.18064545        4       0.00508153      -0.00359318      -0.00622358
In       4.37455882      -2.68676767       5.12301836        5       0.00508153       0.00718637       0.00000000
In      -1.20267715       1.25693370       5.12301836        6       0.00508153       0.00718637      -0.00000000
In      -1.58594084       6.63046905       1.70767278        7      -0.00508153      -0.00718637       0.00000000
In       3.99129513       0.13550418       3.65004569        8      -0.00508153       0.00359318       0.00622358
In      -1.39430899       3.94370138      -0.00000000        9      -0.00000000       0.00000000      -0.00000000
In       3.99129513       6.05105624       0.23470012       10      -0.00508153       0.00359318       0.00622358
In      -1.20267715      -2.10735486       6.59599103       11       0.00508153      -0.00359318      -0.00622358
In       3.99129513       2.68676768       1.70767278       12      -0.00508153      -0.00718637       0.00000000
In       1.58594084       4.79412254       1.94237290       13       0.00508153      -0.00359318       0.00622358
In       4.18292698       0.00000000      -0.00000000       14      -0.00000000      -0.00000000      -0.00000000
In       1.39430899       1.97185069       3.41534557       15       0.00000000      -0.00000000       0.00000000
O        0.79670166       3.93414699       3.74593883       16      -0.00291946       0.01495848       0.00168618
O       -1.99191633       3.24885539       4.96599607       17      -0.00291946      -0.00601896      -0.01379751
O       -0.39854782       2.12217371       0.08677482       18       0.00745510      -0.01335488      -0.00109132
O       -0.79670166      -0.70440037       1.88124375       19       0.00291946       0.00893951      -0.01211133
O        3.72702234       4.69820122       1.79446893       20      -0.00470158      -0.00956959      -0.01102001
O        1.85021363       2.76689561       1.55065049       21       0.00470158       0.00475881      -0.01379751
O        1.85021363       5.87500698       0.24381843       22       0.00470158      -0.01432840       0.00277750
O       -2.13365384       5.58391531       3.50212040       23       0.01507614      -0.00257711      -0.00109132
O        3.18716580       1.82152767       6.74391632       24      -0.00745510       0.01335488       0.00109132
O        4.92227182      -1.64021394       3.32857075       25      -0.01507614       0.00257711       0.00109132
O        5.97578379       3.10808675       1.62087664       26      -0.00745510      -0.00762255       0.01102001
O        3.44358213       2.21281827       3.65916401       27       0.01507614       0.00034344       0.00277750
O        0.65496415       4.03437055       6.50009789       28       0.01507614       0.00223367      -0.00168618
O        2.13365383      -0.09066917       0.33059326       29      -0.01507614      -0.00223367       0.00168618
O       -3.18716581       0.83561463       5.20981450       30       0.00745510       0.00762255      -0.01102001
O        4.78053431       0.69484599       1.86469508       31       0.00291946       0.00601896       0.01379751
O        0.93840435       1.17680576       5.28004065       32      -0.00470158      -0.00475881       0.01379751
O        3.18716580      -0.98591303       5.29658933       33      -0.00745510      -0.00573233      -0.01211133
O        1.99191632       0.00955439       3.08475231       34       0.00291946      -0.01495848      -0.00168618
O        0.93840435      -1.93130560       6.58687271       35      -0.00470158       0.01432840      -0.00277750
O       -0.65496415       1.73088311       3.17152714       36      -0.01507614      -0.00034344      -0.00277750
O       -0.93840436      -0.75449984       5.03622221       37       0.00470158       0.00956959       0.01102001
O       -0.39854782       4.92961441       1.53410182       38       0.00745510       0.00573233       0.01211133
O        3.58531964       4.64810175       4.94944739       39      -0.00291946      -0.00893951       0.01211133
40
Lattice="8.365853953084635 6.5568924754041e-10 -3.3059420873945643e-15 -2.788617984979734 7.887402747304677 -1.1357081426887535e-09 -2.788617984052447 -3.9437013729966304 6.8306911498021625" Properties=species:S:1:pos:R:3:spacegroup_kinds:I:1:forces:R:3 spacegroup="P 1" unit_cell=conventional occupancy="_JSON {\"0\": {\"In\": 1}, \"1\": {\"In\": 1}, \"2\": {\"In\": 1}, \"3\": {\"In\": 1}, \"4\": {\"In\": 1}, \"5\": {\"In\": 1}, \"6\": {\"In\": 1}, \"7\": {\"In\": 1}, \"8\": {\"In\": 1}, \"9\": {\"In\": 1}, \"10\": {\"In\": 1}, \"11\": {\"In\": 1}, \"12\": {\"In\": 1}, \"13\": {\"In\": 1}, \"14\": {\"In\": 1}, \"15\": {\"In\": 1}, \"16\": {\"O\": 1}, \"17\": {\"O\": 1}, \"18\": {\"O\": 1}, \"19\": {\"O\": 1}, \"20\": {\"O\": 1}, \"21\": {\"O\": 1}, \"22\": {\"O\": 1}, \"23\": {\"O\": 1}, \"24\": {\"O\": 1}, \"25\": {\"O\": 1}, \"26\": {\"O\": 1}, \"27\": {\"O\": 1}, \"28\": {\"O\": 1}, \"29\": {\"O\": 1}, \"30\": {\"O\": 1}, \"31\": {\"O\": 1}, \"32\": {\"O\": 1}, \"33\": {\"O\": 1}, \"34\": {\"O\": 1}, \"35\": {\"O\": 1}, \"36\": {\"O\": 1}, \"37\": {\"O\": 1}, \"38\": {\"O\": 1}, \"39\": {\"O\": 1}}" n_minim_iter=5 energy=-45144.130419453286 stress="-0.21057708023284225 3.839226711811987e-13 -1.5628470726841956e-13 3.839226711811987e-13 -0.2105770802342415 -5.767966257525467e-13 -1.5628470726841956e-13 -5.767966257525467e-13 -0.2105770802315843" free_energy=-45144.130419453286 pbc="T T T"
In      -3.99105917       2.82210501       5.35800747        0       0.00053757      -0.00038012       0.00065838
In       6.77967716       1.12159637       1.47268368        1      -0.00053757       0.00038012      -0.00065838
In       1.20244119      -0.85025432       4.88802925        2      -0.00053757       0.00038012      -0.00065838
In      -1.39430899      -1.97185069       3.41534557        3       0.00000000       0.00000000      -0.00000000
In      -1.20244119       3.80803035       3.18035646        4       0.00053757      -0.00038012      -0.00065838
In       4.37479478      -2.68643398       5.12301836        5       0.00053757       0.00076024       0.00000000
In      -1.20244119       1.25726740       5.12301836        6       0.00053757       0.00076024       0.00000000
In      -1.58617680       6.63013536       1.70767278        7      -0.00053757      -0.00076024      -0.00000000
In       3.99105917       0.13567103       3.65033468        8      -0.00053757       0.00038012       0.00065838
In      -1.39430899       3.94370138      -0.00000000        9      -0.00000000       0.00000000      -0.00000000
In       3.99105917       6.05122309       0.23498911       10      -0.00053757       0.00038012       0.00065838
In      -1.20244119      -2.10752171       6.59570204       11       0.00053757      -0.00038012      -0.00065838
In       3.99105917       2.68643398       1.70767278       12      -0.00053757      -0.00076024       0.00000000
In       1.58617679       4.79395569       1.94266189       13       0.00053757      -0.00038012       0.00065838
In       4.18292698       0.00000000      -0.00000000       14       0.00000000       0.00000000      -0.00000000
In       1.39430899       1.97185069       3.41534557       15      -0.00000000       0.00000000      -0.00000000
O        0.79645062       3.93444116       3.74599960       16       0.00209078       0.00953306       0.00450062
O       -1.99216737       3.24876093       4.96571093       17       0.00209078      -0.00086888      -0.01050618
O       -0.39844322       2.12182777       0.08692526       18       0.00886559      -0.00565940      -0.00220877
O       -0.79645062      -0.70420067       1.88101938       19      -0.00209078       0.00866418      -0.00600557
O        3.72701696       4.69808837       1.79409412       20      -0.00151612      -0.00993941      -0.00379680
O        1.85021901       2.76716379       1.55036536       21       0.00151612      -0.00168158      -0.01050618
O        1.85021901       5.87462596       0.24372876       22       0.00151612      -0.00825783       0.00670938
O       -2.13329281       5.58393201       3.50227083       23       0.00829093      -0.00647209      -0.00220877
O        3.18706120       1.82187361       6.74376588       24      -0.00886559       0.00565940       0.00220877
O        4.92191079      -1.64023063       3.32842031       25      -0.00829093       0.00647209       0.00220877
O        5.97567918       3.10804406       1.62125145       26      -0.00886559      -0.00474255       0.00379680
O        3.44394316       2.21294020       3.65907433       27       0.00829093       0.00132320       0.00670938
O        0.65532517       4.03423192       6.50003712       28       0.00829093       0.00514890      -0.00450062
O        2.13329281      -0.09053054       0.33065402       29      -0.00829093      -0.00514890       0.00450062
O       -3.18706120       0.83565732       5.20943969       30       0.00886559       0.00474255      -0.00379680
O        4.78078535       0.69494045       1.86498021       31      -0.00209078       0.00086888       0.01050618
O        0.93839898       1.17653759       5.28032579       32      -0.00151612       0.00168158       0.01050618
O        3.18706120      -0.98621629       5.29636495       33      -0.00886559      -0.00091685      -0.00600557
O        1.99216736       0.00926022       3.08469155       34      -0.00209078      -0.00953306      -0.00450062
O        0.93839898      -1.93092458       6.58696239       35      -0.00151612       0.00825783      -0.00670938
O       -0.65532517       1.73076118       3.17161681       36      -0.00829093      -0.00132320      -0.00670938
O       -0.93839898      -0.75438699       5.03659703       37       0.00151612       0.00993941       0.00379680
O       -0.39844322       4.92991766       1.53432619       38       0.00886559       0.00091685       0.00600557
O        3.58506860       4.64790204       4.94967176       39       0.00209078      -0.00866418       0.00600557
40