40
Lattice="8.193312696044103 6.42166348200871e-10 1.9860056497208593e-15 -2.731104232620146 7.724729290125446 -1.1122853244230774e-09 -2.7311042317119862 -3.8623646444205413 6.689811803347886" Properties=species:S:1:pos:R:3:spacegroup_kinds:I:1:forces:R:3 spacegroup="P 1" unit_cell=conventional occupancy="_JSON {\"0\": {\"In\": 1}, \"1\": {\"In\": 1}, \"2\": {\"In\": 1}, \"3\": {\"In\": 1}, \"4\": {\"In\": 1}, \"5\": {\"In\": 1}, \"6\": {\"In\": 1}, \"7\": {\"In\": 1}, \"8\": {\"In\": 1}, \"9\": {\"In\": 1}, \"10\": {\"In\": 1}, \"11\": {\"In\": 1}, \"12\": {\"In\": 1}, \"13\": {\"In\": 1}, \"14\": {\"In\": 1}, \"15\": {\"In\": 1}, \"16\": {\"O\": 1}, \"17\": {\"O\": 1}, \"18\": {\"O\": 1}, \"19\": {\"O\": 1}, \"20\": {\"O\": 1}, \"21\": {\"O\": 1}, \"22\": {\"O\": 1}, \"23\": {\"O\": 1}, \"24\": {\"O\": 1}, \"25\": {\"O\": 1}, \"26\": {\"O\": 1}, \"27\": {\"O\": 1}, \"28\": {\"O\": 1}, \"29\": {\"O\": 1}, \"30\": {\"O\": 1}, \"31\": {\"O\": 1}, \"32\": {\"O\": 1}, \"33\": {\"O\": 1}, \"34\": {\"O\": 1}, \"35\": {\"O\": 1}, \"36\": {\"O\": 1}, \"37\": {\"O\": 1}, \"38\": {\"O\": 1}, \"39\": {\"O\": 1}}" n_minim_iter=6 energy=-45136.790272344595 stress="-0.33436984260488223 5.289666904710198e-13 -4.4735046704868873e-13 5.289666904710198e-13 -0.33436984260415187 -6.224386592310412e-13 -4.4735046704868873e-13 -6.224386592310412e-13 -0.3343698426035024" free_energy=-45136.790272344595 pbc="T T T"
In      -3.89898269       2.75699710       5.25945865        0      -0.00407285       0.00287994      -0.00498821
In       6.63008692       1.10536755       1.43035315        1       0.00407285      -0.00287994       0.00498821
In       1.16787845      -0.82581477       4.77525905        2       0.00407285      -0.00287994       0.00498821
In      -1.36555212      -1.93118232       3.34490590        3      -0.00000000       0.00000000       0.00000000
In      -1.16787846       3.72258826       3.10280610        4      -0.00407285       0.00287994       0.00498821
In       4.29433001      -2.61722071       5.01735885        5      -0.00407285      -0.00575989       0.00000000
In      -1.16787846       1.24514394       5.01735885        6      -0.00407285      -0.00575989       0.00000000
In      -1.56322578       6.47958536       1.67245295        7       0.00407285       0.00575989       0.00000000
In       3.89898269       0.13977639       3.58700570        8       0.00407285      -0.00287994      -0.00498821
In      -1.36555212       3.86236465      -0.00000000        9       0.00000000       0.00000000       0.00000000
In       3.89898269       5.93332336       0.24209980       10       0.00407285      -0.00287994      -0.00498821
In      -1.16787846      -2.07095871       6.44771200       11      -0.00407285       0.00287994       0.00498821
In       3.89898269       2.61722071       1.67245295       12       0.00407285       0.00575989       0.00000000
In       1.56322578       4.68817942       1.91455275       13      -0.00407285       0.00287994      -0.00498821
In       4.09665635       0.00000000      -0.00000000       14      -0.00000000      -0.00000000       0.00000000
In       1.36555211       1.93118232       3.34490590       15       0.00000000       0.00000000      -0.00000000
O        0.77181719       3.85062656       3.69101955       16       0.00371575      -0.00249205       0.00595757
O       -1.95928704       3.20238574       4.85446751       17       0.00371575       0.00640543      -0.00082061
O       -0.37602846       2.08285286       0.10374353       18       0.00492816       0.00554813       0.00066428
O       -0.77181719      -0.67171699       1.85567526       19      -0.00371575       0.00391338       0.00513696
O        3.67233391       4.59397800       1.75193172       20       0.00480051      -0.00352986       0.00447268
O        1.78987455       2.71095395       1.50956161       21      -0.00480051      -0.00563839      -0.00082061
O        1.78987455       5.74538870       0.24237011       22      -0.00480051       0.00210853       0.00529329
O       -2.08907533       5.45378571       3.44864943       23      -0.00358811      -0.00649569       0.00066428
O        3.10713269       1.77951179       6.58606826       24      -0.00492816      -0.00554813      -0.00066428
O        4.82017956      -1.59142106       3.24116236       25       0.00358811       0.00649569      -0.00066428
O        5.83823692       3.06245329       1.59297418       26      -0.00492816       0.00334935      -0.00447268
O        3.37313313       2.19090749       3.58727601       27      -0.00358811       0.00382313       0.00529329
O        0.64202890       3.94240074       6.34369815       28      -0.00358811       0.00267256      -0.00595757
O        2.08907533      -0.08003609       0.34611365       29       0.00358811      -0.00267256       0.00595757
O       -3.10713269       0.79991136       5.09683762       30       0.00492816      -0.00334935       0.00447268
O        4.69039127       0.65997891       1.83534429       31      -0.00371575      -0.00640543       0.00082061
O        0.94122968       1.15141070       5.18025019       32       0.00480051       0.00563839       0.00082061
O        3.10713269      -0.97960043       5.20058116       33      -0.00492816       0.00219879       0.00513696
O        1.95928704       0.01173809       2.99879225       34      -0.00371575       0.00249205      -0.00595757
O        0.94122968      -1.88302405       6.44744169       35       0.00480051      -0.00210853      -0.00529329
O       -0.64202891       1.67145716       3.10253579       36       0.00358811      -0.00382313      -0.00529329
O       -0.94122968      -0.73161335       4.93788008       37      -0.00480051       0.00352986      -0.00447268
O       -0.37602846       4.84196508       1.48923064       38       0.00492816      -0.00219879      -0.00513696
O        3.50292142       4.53408164       4.83413654       39       0.00371575      -0.00391338      -0.00513696
