40
Lattice="9.544158842964148 7.480408432378817e-10 -1.5421130907293348e-15 -3.1813862816933107 8.998319251192656 -1.295664698850465e-09 -3.1813862806354187 -4.499159624848271 7.792773063759187" Properties=species:S:1:pos:R:3:spacegroup_kinds:I:1:forces:R:3 spacegroup="P 1" unit_cell=conventional occupancy="_JSON {\"0\": {\"In\": 1}, \"1\": {\"In\": 1}, \"2\": {\"In\": 1}, \"3\": {\"In\": 1}, \"4\": {\"In\": 1}, \"5\": {\"In\": 1}, \"6\": {\"In\": 1}, \"7\": {\"In\": 1}, \"8\": {\"In\": 1}, \"9\": {\"In\": 1}, \"10\": {\"In\": 1}, \"11\": {\"In\": 1}, \"12\": {\"In\": 1}, \"13\": {\"In\": 1}, \"14\": {\"In\": 1}, \"15\": {\"In\": 1}, \"16\": {\"O\": 1}, \"17\": {\"O\": 1}, \"18\": {\"O\": 1}, \"19\": {\"O\": 1}, \"20\": {\"O\": 1}, \"21\": {\"O\": 1}, \"22\": {\"O\": 1}, \"23\": {\"O\": 1}, \"24\": {\"O\": 1}, \"25\": {\"O\": 1}, \"26\": {\"O\": 1}, \"27\": {\"O\": 1}, \"28\": {\"O\": 1}, \"29\": {\"O\": 1}, \"30\": {\"O\": 1}, \"31\": {\"O\": 1}, \"32\": {\"O\": 1}, \"33\": {\"O\": 1}, \"34\": {\"O\": 1}, \"35\": {\"O\": 1}, \"36\": {\"O\": 1}, \"37\": {\"O\": 1}, \"38\": {\"O\": 1}, \"39\": {\"O\": 1}}" n_minim_iter=4 energy=-45145.354374995106 stress="0.10254972524504616 -1.3675448765036887e-13 -3.655676326131785e-14 -1.3675448765036887e-13 0.10254972524442066 -4.421848406765475e-13 -3.655676326131785e-14 -4.421848406765475e-13 0.1025497252453071" free_energy=-45145.354374995106 pbc="T T T"
In      -4.46734447       3.15888957       6.21780236        0       0.00208654      -0.00147541       0.00255548
In       7.64873075       1.34027006       1.57497069        1      -0.00208654       0.00147541      -0.00255548
In       1.28595819      -0.90930975       5.47135723        2      -0.00208654       0.00147541      -0.00255548
In      -1.59069314      -2.24957981       3.89638653        3      -0.00000000      -0.00000000      -0.00000000
In      -1.28595819       4.28367948       3.52316396        4       0.00208654      -0.00147541      -0.00255548
In       5.07681437      -2.94340941       5.84457980        5       0.00208654       0.00295082      -0.00000000
In      -1.28595819       1.55575021       5.84457979        6       0.00208654       0.00295082       0.00000000
In      -1.89542809       7.44256904       1.94819326        7      -0.00208654      -0.00295082      -0.00000000
In       4.46734447       0.21548015       4.26960910        8      -0.00208654       0.00147541       0.00255548
In      -1.59069314       4.49915963      -0.00000000        9      -0.00000000       0.00000000      -0.00000000
In       4.46734447       6.96421959       0.37322257       10      -0.00208654       0.00147541       0.00255548
In      -1.28595819      -2.46505996       7.41955049       11       0.00208654      -0.00147541      -0.00255548
In       4.46734447       2.94340942       1.94819326       12      -0.00208654      -0.00295082      -0.00000000
In       1.89542809       5.40846938       2.32141583       13       0.00208654      -0.00147541       0.00255548
In       4.77207942       0.00000000      -0.00000000       14       0.00000000       0.00000000       0.00000000
In       1.59069314       2.24957982       3.89638653       15       0.00000000      -0.00000000       0.00000000
O        1.05777032       4.50256965       4.20544889       16       0.00621651       0.00723818       0.00254653
O       -2.12361597       3.64032057       5.68709545       17       0.00621651      -0.00141373      -0.00754171
O       -0.45391613       2.45966449      -0.06072130       18       0.00756351      -0.00236621      -0.00589198
O       -1.05777032      -0.85542904       2.09977128       19      -0.00621651       0.00582444      -0.00499518
O        4.13999913       5.31953121       2.16049258       20      -0.00340505      -0.00922618       0.00089680
O        2.22277343       3.03830396       1.79070892       21       0.00340505      -0.00538974      -0.00754171
O        2.22277343       6.78038688       0.36978366       22       0.00340505      -0.00383644       0.00843850
O       -2.47029930       6.35680751       3.83566523       23       0.00475205      -0.00634221      -0.00589198
O        3.63530241       2.03949514       7.85349436       24      -0.00756351       0.00236621       0.00589198
O        5.65168558      -1.85764788       3.95710783       25      -0.00475205       0.00634221       0.00589198
O        6.81668869       3.42682587       1.73589395       26      -0.00756351      -0.00628571      -0.00089680
O        3.89247326       2.39295959       4.26617019       27       0.00475205      -0.00193150       0.00843850
O        0.71108698       4.74771178       7.48371070       28       0.00475205       0.00827371      -0.00254653
O        2.47029930      -0.24855215       0.30906236       29      -0.00475205      -0.00827371       0.00254653
O       -3.63530241       1.07233376       6.05687911       30       0.00756351       0.00628571       0.00089680
O        5.30500224       0.85883906       2.10567760       31      -0.00621651       0.00141373       0.00754171
O        0.95861285       1.46085567       6.00206414       32      -0.00340505       0.00538974       0.00754171
O        3.63530241      -0.96716138       5.99615781       33      -0.00756351       0.00391950      -0.00499518
O        2.12361596      -0.00341002       3.58732417       34      -0.00621651      -0.00723818      -0.00254653
O        0.95861285      -2.28122725       7.42298940       35      -0.00340505       0.00383644      -0.00843850
O       -0.71108698       2.10620004       3.52660287       36      -0.00475205       0.00193150      -0.00843850
O       -0.95861285      -0.82037158       5.63228048       37       0.00340505       0.00922618      -0.00089680
O       -0.45391613       5.46632101       1.79661524       38       0.00756351      -0.00391950       0.00499518
O        4.23915660       5.35458867       5.69300178       39       0.00621651      -0.00582444       0.00499518
