40
Lattice="8.61204847275909 6.74988159829862e-10 -8.678284619710094e-15 -2.8706828248894154 8.119517166435278 -1.1691216317072917e-09 -2.8706828239348323 -4.059758582542641 7.031708133376209" Properties=species:S:1:pos:R:3:spacegroup_kinds:I:1:forces:R:3 spacegroup="P 1" unit_cell=conventional occupancy="_JSON {\"0\": {\"In\": 1}, \"1\": {\"In\": 1}, \"2\": {\"In\": 1}, \"3\": {\"In\": 1}, \"4\": {\"In\": 1}, \"5\": {\"In\": 1}, \"6\": {\"In\": 1}, \"7\": {\"In\": 1}, \"8\": {\"In\": 1}, \"9\": {\"In\": 1}, \"10\": {\"In\": 1}, \"11\": {\"In\": 1}, \"12\": {\"In\": 1}, \"13\": {\"In\": 1}, \"14\": {\"In\": 1}, \"15\": {\"In\": 1}, \"16\": {\"O\": 1}, \"17\": {\"O\": 1}, \"18\": {\"O\": 1}, \"19\": {\"O\": 1}, \"20\": {\"O\": 1}, \"21\": {\"O\": 1}, \"22\": {\"O\": 1}, \"23\": {\"O\": 1}, \"24\": {\"O\": 1}, \"25\": {\"O\": 1}, \"26\": {\"O\": 1}, \"27\": {\"O\": 1}, \"28\": {\"O\": 1}, \"29\": {\"O\": 1}, \"30\": {\"O\": 1}, \"31\": {\"O\": 1}, \"32\": {\"O\": 1}, \"33\": {\"O\": 1}, \"34\": {\"O\": 1}, \"35\": {\"O\": 1}, \"36\": {\"O\": 1}, \"37\": {\"O\": 1}, \"38\": {\"O\": 1}, \"39\": {\"O\": 1}}" n_minim_iter=1 energy=-45149.99600048017 stress="-0.0818473256953652 5.5464531452085806e-14 -3.876303346093774e-13 5.5464531452085806e-14 -0.08184732569615864 -8.673212423256054e-13 -3.876303346093774e-13 -8.673212423256054e-13 -0.08184732569564379" free_energy=-45149.99600048017 pbc="T T T"
In      -4.10952303       2.90587160       5.51444494        0      -0.00671128       0.00474559      -0.00821960
In       6.98020585       1.15388698       1.51726318        1       0.00671128      -0.00474559       0.00821960
In       1.23884020      -0.87599231       5.03311725        2       0.00671128      -0.00474559       0.00821960
In      -1.43534141      -2.02987929       3.51585406        3      -0.00000000      -0.00000000       0.00000000
In      -1.23884021       3.92081125       3.27519022        4      -0.00671128       0.00474559       0.00821960
In       4.50252544      -2.76692426       5.27378110        5      -0.00671128      -0.00949118      -0.00000000
In      -1.23884021       1.29283432       5.27378110        6      -0.00671128      -0.00949118       0.00000000
In      -1.63184262       6.82668285       1.75792703        7       0.00671128       0.00949118      -0.00000000
In       4.10952303       0.13894734       3.75651791        8       0.00671128      -0.00474559      -0.00821960
In      -1.43534141       4.05975858      -0.00000000        9      -0.00000000       0.00000000       0.00000000
In       4.10952303       6.22858521       0.24066384       10       0.00671128      -0.00474559      -0.00821960
In      -1.23884021      -2.16882663       6.79104428       11      -0.00671128       0.00474559       0.00821960
In       4.10952303       2.76692427       1.75792703       12       0.00671128       0.00949118      -0.00000000
In       1.63184262       4.93575089       1.99859088       13      -0.00671128       0.00474559      -0.00821960
In       4.30602423       0.00000000      -0.00000000       14      -0.00000000       0.00000000      -0.00000000
In       1.43534141       2.02987929       3.51585406       15      -0.00000000       0.00000000      -0.00000000
O        0.83668298       4.05795623       3.83917669       16       0.00442260      -0.01098069       0.03006472
O       -2.03399985       3.32572572       5.11368068       17       0.00442260       0.03152715      -0.00552280
O       -0.41485777       2.18081939       0.06500849       18       0.02084559       0.01991435       0.01459117
O       -0.83668298      -0.73583522       1.92114923       19      -0.00442260       0.02054646       0.02454192
O        3.81352423       4.83312648       1.85614074       20       0.02824989      -0.01212225       0.00995075
O        1.92784142       2.83897750       1.59782661       21      -0.02824989      -0.01467872      -0.00552280
O        1.92784142       6.05390757       0.25831413       22      -0.02824989       0.00255647       0.01547355
O       -2.19438216       5.75382974       3.58086256       23      -0.01182690      -0.02629153       0.01459117
O        3.28554060       1.87893920       6.96669964       24      -0.02084559      -0.01991435      -0.01459117
O        5.06506498      -1.69407115       3.45084557       25       0.01182690       0.02629153      -0.01459117
O        6.15622342       3.17658799       1.65971332       26      -0.02084559       0.02259350      -0.00995075
O        3.54698349       2.25408237       3.77416819       27      -0.01182690       0.02578209       0.01547355
O        0.67630066       4.17136365       6.70838551       28      -0.01182690       0.00050944      -0.03006472
O        2.19438216      -0.11160506       0.32332262       29       0.01182690      -0.00050944       0.03006472
O       -3.28554060       0.88317060       5.37199481       30       0.02084559      -0.02259350       0.00995075
O        4.90468267       0.73403286       1.91802745       31      -0.00442260      -0.03152715       0.00552280
O        0.94284140       1.22078109       5.43388152       32       0.02824989       0.01467872       0.00552280
O        3.28554060      -0.99576860       5.43700330       33      -0.02084559      -0.00267915       0.02454192
O        2.03399984       0.00180236       3.19253144       34      -0.00442260       0.01098069      -0.03006472
O        0.94284140      -1.99414898       6.77339400       35       0.02824989      -0.00255647      -0.01547355
O       -0.67630067       1.80567622       3.25753993       36       0.01182690      -0.02578209      -0.01547355
O       -0.94284141      -0.77336789       5.17556739       37      -0.02824989       0.01212225      -0.00995075
O       -0.41485777       5.05552719       1.59470483       38       0.02084559       0.00267915      -0.02454192
O        3.70736580       4.79559381       5.11055890       39       0.00442260      -0.02054646      -0.02454192
40
Lattice="8.612048472759088 6.749881598298619e-10 -8.678284619710092e-15 -2.870682824889415 8.119517166435276 -1.1691216317072915e-09 -2.870682823934832 -4.05975858254264 7.031708133376207" Properties=species:S:1:pos:R:3:spacegroup_kinds:I:1:forces:R:3 spacegroup="P 1" unit_cell=conventional occupancy="_JSON {\"0\": {\"In\": 1}, \"1\": {\"In\": 1}, \"2\": {\"In\": 1}, \"3\": {\"In\": 1}, \"4\": {\"In\": 1}, \"5\": {\"In\": 1}, \"6\": {\"In\": 1}, \"7\": {\"In\": 1}, \"8\": {\"In\": 1}, \"9\": {\"In\": 1}, \"10\": {\"In\": 1}, \"11\": {\"In\": 1}, \"12\": {\"In\": 1}, \"13\": {\"In\": 1}, \"14\": {\"In\": 1}, \"15\": {\"In\": 1}, \"16\": {\"O\": 1}, \"17\": {\"O\": 1}, \"18\": {\"O\": 1}, \"19\": {\"O\": 1}, \"20\": {\"O\": 1}, \"21\": {\"O\": 1}, \"22\": {\"O\": 1}, \"23\": {\"O\": 1}, \"24\": {\"O\": 1}, \"25\": {\"O\": 1}, \"26\": {\"O\": 1}, \"27\": {\"O\": 1}, \"28\": {\"O\": 1}, \"29\": {\"O\": 1}, \"30\": {\"O\": 1}, \"31\": {\"O\": 1}, \"32\": {\"O\": 1}, \"33\": {\"O\": 1}, \"34\": {\"O\": 1}, \"35\": {\"O\": 1}, \"36\": {\"O\": 1}, \"37\": {\"O\": 1}, \"38\": {\"O\": 1}, \"39\": {\"O\": 1}}" n_minim_iter=2 energy=-45149.99670712372 stress="-0.08172962477297792 -2.6461270344374518e-14 4.8638999493930885e-14 -2.6461270344374518e-14 -0.08172962477279151 -4.998308444835574e-13 4.8638999493930885e-14 -4.998308444835574e-13 -0.08172962477283788" free_energy=-45149.99670712372 pbc="T T T"
In      -4.10987848       2.90612294       5.51400961        0       0.01201235      -0.00849401       0.01471206
In       6.98056130       1.15363564       1.51769852        1      -0.01201235       0.00849401      -0.01471206
In       1.23919565      -0.87624365       5.03355259        2      -0.01201235       0.00849401      -0.01471206
In      -1.43534141      -2.02987929       3.51585406        3      -0.00000000      -0.00000000       0.00000000
In      -1.23919566       3.92106259       3.27562555        4       0.01201235      -0.00849401      -0.01471206
In       4.50216999      -2.76742694       5.27378110        5       0.01201235       0.01698803       0.00000000
In      -1.23919566       1.29233164       5.27378110        6       0.01201235       0.01698803       0.00000000
In      -1.63148717       6.82718553       1.75792703        7      -0.01201235      -0.01698803      -0.00000000
In       4.10987848       0.13869600       3.75608258        8      -0.01201235       0.00849401       0.01471206
In      -1.43534141       4.05975858      -0.00000000        9      -0.00000000       0.00000000      -0.00000000
In       4.10987848       6.22833387       0.24022851       10      -0.01201235       0.00849401       0.01471206
In      -1.23919565      -2.16857529       6.79147962       11       0.01201235      -0.00849401      -0.01471206
In       4.10987848       2.76742695       1.75792703       12      -0.01201235      -0.01698803      -0.00000000
In       1.63148717       4.93600224       1.99815554       13       0.01201235      -0.00849401       0.01471206
In       4.30602423       0.00000000      -0.00000000       14       0.00000000       0.00000000      -0.00000000
In       1.43534141       2.02987929       3.51585406       15       0.00000000       0.00000000       0.00000000
O        0.83691721       4.05737465       3.84076900       16      -0.00606829      -0.00842481       0.00185425
O       -2.03376561       3.32739550       5.11338817       17      -0.00606829       0.00581823       0.00636898
O       -0.41375373       2.18187411       0.06578128       18      -0.00448027       0.00469534       0.00831390
O       -0.83691722      -0.73474702       1.92244905       19       0.00606829      -0.00260658       0.00822323
O        3.81502043       4.83248445       1.85666776       20       0.00750825       0.00740661      -0.00009067
O        1.92634522       2.83820007       1.59753410       21      -0.00750825       0.00378183       0.00636898
O        1.92634522       6.05404296       0.25913365       22      -0.00750825       0.00362479      -0.00645965
O       -2.19500855       5.75243726       3.58163535       23      -0.00592023       0.00265893       0.00831390
O        3.28443655       1.87788448       6.96592684       24       0.00448027      -0.00469534      -0.00831390
O        5.06569137      -1.69267867       3.45007278       25       0.00592023      -0.00265893      -0.00831390
O        6.15511937       3.17778461       1.65918630       26       0.00448027       0.00954771       0.00009067
O        3.54635710       2.25544787       3.77498772       27      -0.00592023       0.00587058      -0.00645965
O        0.67567428       4.17139063       6.70679319       28      -0.00592023      -0.00852951      -0.00185425
O        2.19500854      -0.11163204       0.32491494       29       0.00592023       0.00852951       0.00185425
O       -3.28443655       0.88197398       5.37252183       30      -0.00448027      -0.00954771      -0.00009067
O        4.90444843       0.73236309       1.91831996       31       0.00606829      -0.00581823      -0.00636898
O        0.94433760       1.22155852       5.43417402       32       0.00750825      -0.00378183      -0.00636898
O        3.28443655      -0.99591050       5.43830311       33       0.00448027      -0.00485238       0.00822323
O        2.03376561       0.00238393       3.19093912       34       0.00606829       0.00842481      -0.00185425
O        0.94433760      -1.99428438       6.77257448       35       0.00750825      -0.00362479       0.00645965
O       -0.67567428       1.80431072       3.25672041       36       0.00592023      -0.00587058       0.00645965
O       -0.94433761      -0.77272586       5.17504037       37      -0.00750825      -0.00740661       0.00009067
O       -0.41375373       5.05566909       1.59340501       38      -0.00448027       0.00485238      -0.00822323
O        3.70760004       4.79450560       5.10925908       39      -0.00606829       0.00260658      -0.00822323
40
Lattice="8.612048472759085 6.749881598298617e-10 -8.678284619710092e-15 -2.870682824889414 8.119517166435273 -1.1691216317072915e-09 -2.870682823934831 -4.0597585825426385 7.031708133376207" Properties=species:S:1:pos:R:3:spacegroup_kinds:I:1:forces:R:3 spacegroup="P 1" unit_cell=conventional occupancy="_JSON {\"0\": {\"In\": 1}, \"1\": {\"In\": 1}, \"2\": {\"In\": 1}, \"3\": {\"In\": 1}, \"4\": {\"In\": 1}, \"5\": {\"In\": 1}, \"6\": {\"In\": 1}, \"7\": {\"In\": 1}, \"8\": {\"In\": 1}, \"9\": {\"In\": 1}, \"10\": {\"In\": 1}, \"11\": {\"In\": 1}, \"12\": {\"In\": 1}, \"13\": {\"In\": 1}, \"14\": {\"In\": 1}, \"15\": {\"In\": 1}, \"16\": {\"O\": 1}, \"17\": {\"O\": 1}, \"18\": {\"O\": 1}, \"19\": {\"O\": 1}, \"20\": {\"O\": 1}, \"21\": {\"O\": 1}, \"22\": {\"O\": 1}, \"23\": {\"O\": 1}, \"24\": {\"O\": 1}, \"25\": {\"O\": 1}, \"26\": {\"O\": 1}, \"27\": {\"O\": 1}, \"28\": {\"O\": 1}, \"29\": {\"O\": 1}, \"30\": {\"O\": 1}, \"31\": {\"O\": 1}, \"32\": {\"O\": 1}, \"33\": {\"O\": 1}, \"34\": {\"O\": 1}, \"35\": {\"O\": 1}, \"36\": {\"O\": 1}, \"37\": {\"O\": 1}, \"38\": {\"O\": 1}, \"39\": {\"O\": 1}}" n_minim_iter=3 energy=-45149.99695902158 stress="-0.08169400834649863 -6.108332904929068e-13 1.8203729182083978e-13 -6.108332904929068e-13 -0.08169400834748362 -2.7562920098711042e-14 1.8203729182083978e-13 -2.7562920098711042e-14 -0.08169400834717305" free_energy=-45149.99695902158 pbc="T T T"
In      -4.10923655       2.90566903       5.51479581        0       0.00243545      -0.00172212       0.00298280
In       6.97991937       1.15408956       1.51691232        1      -0.00243545       0.00172212      -0.00298280
In       1.23855372      -0.87578973       5.03276638        2      -0.00243545       0.00172212      -0.00298280
In      -1.43534141      -2.02987929       3.51585406        3       0.00000000      -0.00000000       0.00000000
In      -1.23855372       3.92060867       3.27483935        4       0.00243545      -0.00172212      -0.00298280
In       4.50281193      -2.76651911       5.27378110        5       0.00243545       0.00344425       0.00000000
In      -1.23855372       1.29323947       5.27378110        6       0.00243545       0.00344425       0.00000000
In      -1.63212910       6.82627770       1.75792703        7      -0.00243545      -0.00344425       0.00000000
In       4.10923654       0.13914991       3.75686878        8      -0.00243545       0.00172212       0.00298280
In      -1.43534141       4.05975858      -0.00000000        9      -0.00000000      -0.00000000       0.00000000
In       4.10923654       6.22878779       0.24101471       10      -0.00243545       0.00172212       0.00298280
In      -1.23855372      -2.16902920       6.79069342       11       0.00243545      -0.00172212      -0.00298280
In       4.10923654       2.76651912       1.75792703       12      -0.00243545      -0.00344425      -0.00000000
In       1.63212910       4.93554832       1.99894174       13       0.00243545      -0.00172212       0.00298280
In       4.30602423       0.00000000      -0.00000000       14      -0.00000000       0.00000000       0.00000000
In       1.43534141       2.02987929       3.51585406       15       0.00000000       0.00000000      -0.00000000
O        0.83661250       4.05662698       3.84145781       16      -0.00160512       0.00713158       0.00362362
O       -2.03407032       3.32836586       5.11369128       17      -0.00160512      -0.00042764      -0.00798794
O       -0.41364535       2.18255237       0.06659032       18       0.00578549      -0.00565360       0.00106367
O       -0.83661250      -0.73452433       1.92344096       19       0.00160512       0.00670394      -0.00436432
O        3.81603687       4.83272886       1.85685064       20       0.00013185      -0.00608982      -0.00542799
O        1.92532878       2.83816390       1.59783721       21      -0.00013185       0.00165587      -0.00798794
O        1.92532878       6.05432355       0.25901342       22      -0.00013185      -0.00774569       0.00255995
O       -2.19561190       5.75210899       3.58244439       23       0.00725876      -0.00357008       0.00106367
O        3.28432817       1.87720621       6.96511781       24      -0.00578549       0.00565360      -0.00106367
O        5.06629472      -1.69235041       3.44926374       25      -0.00725876       0.00357008      -0.00106367
O        6.15501099       3.17882439       1.65900342       26      -0.00578549      -0.00190563       0.00542799
O        3.54575375       2.25631265       3.77486749       27       0.00725876       0.00270621       0.00255995
O        0.67507093       4.17085412       6.70610438       28       0.00725876       0.00086387      -0.00362362
O        2.19561189      -0.11109553       0.32560375       29      -0.00725876      -0.00086387       0.00362362
O       -3.28432817       0.88093420       5.37270470       30       0.00578549       0.00190563      -0.00542799
O        4.90475314       0.73139272       1.91801685       31       0.00160512       0.00042764       0.00798794
O        0.94535404       1.22159469       5.43387092       32       0.00013185      -0.00165587       0.00798794
O        3.28432817      -0.99627201       5.43929503       33      -0.00578549      -0.00374797      -0.00436432
O        2.03407032       0.00313161       3.19025032       34       0.00160512      -0.00713158      -0.00362362
O        0.94535404      -1.99456496       6.77269470       35       0.00013185       0.00774569      -0.00255995
O       -0.67507093       1.80344594       3.25684064       36      -0.00725876      -0.00270621      -0.00255995
O       -0.94535404      -0.77297027       5.17485749       37      -0.00013185       0.00608982       0.00542799
O       -0.41364535       5.05603060       1.59241310       38       0.00578549       0.00374797       0.00436432
O        3.70729533       4.79428292       5.10826717       39      -0.00160512      -0.00670394       0.00436432
