40
Lattice="9.478785840334867 7.429183546415843e-10 -3.704151402109313e-15 -3.159595280812052 8.93668499324011 -1.2867891903101393e-09 -3.1595952797614033 -4.468342495877121 7.739396230622957" Properties=species:S:1:pos:R:3:spacegroup_kinds:I:1:forces:R:3 spacegroup="P 1" unit_cell=conventional occupancy="_JSON {\"0\": {\"In\": 1}, \"1\": {\"In\": 1}, \"2\": {\"In\": 1}, \"3\": {\"In\": 1}, \"4\": {\"In\": 1}, \"5\": {\"In\": 1}, \"6\": {\"In\": 1}, \"7\": {\"In\": 1}, \"8\": {\"In\": 1}, \"9\": {\"In\": 1}, \"10\": {\"In\": 1}, \"11\": {\"In\": 1}, \"12\": {\"In\": 1}, \"13\": {\"In\": 1}, \"14\": {\"In\": 1}, \"15\": {\"In\": 1}, \"16\": {\"O\": 1}, \"17\": {\"O\": 1}, \"18\": {\"O\": 1}, \"19\": {\"O\": 1}, \"20\": {\"O\": 1}, \"21\": {\"O\": 1}, \"22\": {\"O\": 1}, \"23\": {\"O\": 1}, \"24\": {\"O\": 1}, \"25\": {\"O\": 1}, \"26\": {\"O\": 1}, \"27\": {\"O\": 1}, \"28\": {\"O\": 1}, \"29\": {\"O\": 1}, \"30\": {\"O\": 1}, \"31\": {\"O\": 1}, \"32\": {\"O\": 1}, \"33\": {\"O\": 1}, \"34\": {\"O\": 1}, \"35\": {\"O\": 1}, \"36\": {\"O\": 1}, \"37\": {\"O\": 1}, \"38\": {\"O\": 1}, \"39\": {\"O\": 1}}" n_minim_iter=1 energy=-45146.6461013873 stress="0.09433865428371134 2.1970105765593185e-13 -2.512078962938469e-13 2.1970105765593185e-13 0.09433865428395931 2.550892980722942e-13 -2.512078962938469e-13 2.550892980722942e-13 0.09433865428370507" free_energy=-45146.6461013873 pbc="T T T"
In      -4.46383229       3.15640608       6.14203865        0       0.08196781      -0.05795999       0.10038965
In       7.62342756       1.31193642       1.59735758        1      -0.08196781       0.05795999      -0.10038965
In       1.30423700      -0.92223483       5.46705569        2      -0.08196781       0.05795999      -0.10038965
In      -1.57979764      -2.23417125       3.86969811        3       0.00000000      -0.00000000      -0.00000000
In      -1.30423701       4.27349170       3.53220664        4       0.08196781      -0.05795999      -0.10038965
In       5.01495356      -2.96155528       5.80454717        5       0.08196781       0.11591998      -0.00000000
In      -1.30423700       1.50678722       5.80454717        6       0.08196781       0.11591998      -0.00000000
In      -1.85535828       7.42989778       1.93484905        7      -0.08196781      -0.11591998       0.00000000
In       4.46383228       0.19485080       4.20718959        8      -0.08196781       0.05795999       0.10038965
In      -1.57979764       4.46834250      -0.00000000        9       0.00000000       0.00000000       0.00000000
In       4.46383228       6.89736454       0.33749147       10      -0.08196781       0.05795999       0.10038965
In      -1.30423700      -2.42902204       7.40190475       11       0.08196781      -0.05795999      -0.10038965
In       4.46383228       2.96155528       1.93484905       12      -0.08196781      -0.11591998       0.00000000
In       1.85535827       5.39057733       2.27234053       13       0.08196781      -0.05795999       0.10038965
In       4.73939292       0.00000000      -0.00000000       14       0.00000000      -0.00000000       0.00000000
In       1.57979764       2.23417125       3.86969811       15       0.00000000       0.00000000      -0.00000000
O        1.03189696       4.47690945       4.18492518       16       0.03113558       0.00523847      -0.03620448
O       -2.12769832       3.61996805       5.63951444       17       0.03113558      -0.03397324       0.01356559
O       -0.44781245       2.43210936      -0.04245019       18      -0.01671286      -0.00013927      -0.04503655
O       -1.03189697      -0.83980750       2.08504339       19      -0.03113558      -0.02873476      -0.02263889
O        4.12217137       5.28364137       2.12749358       20      -0.04240880       0.00273289       0.02239766
O        2.19701918       3.03352845       1.76981632       21       0.04240880      -0.01803050       0.01356559
O        2.19701918       6.71845542       0.35767725       22       0.04240880       0.02076339       0.00883207
O       -2.44228551       6.31401226       3.82724792       23      -0.00543965       0.01580346      -0.04503655
O        3.60740773       2.03623314       7.78184642       24       0.01671286       0.00013927       0.04503655
O        5.60188079      -1.84566975       3.91214830       25       0.00543965      -0.01580346       0.04503655
O        6.76700301       3.41346299       1.74220453       26       0.01671286      -0.03907244      -0.02239766
O        3.87690505       2.39165905       4.22737537       27      -0.00543965      -0.04690453       0.00883207
O        0.71730977       4.69935619       7.42416916       28      -0.00543965       0.03110107       0.03620448
O        2.44228551      -0.23101369       0.31522706       29       0.00543965      -0.03110107      -0.03620448
O       -3.60740773       1.05487952       5.99719169       30      -0.01671286       0.03907244       0.02239766
O        5.28729359       0.84837446       2.09988179       31      -0.03113558       0.03397324      -0.01356559
O        0.96257609       1.43481406       5.96957990       32      -0.04240880       0.01803050      -0.01356559
O        3.60740773      -0.98135362       5.95474150       33       0.01671286       0.03893316      -0.02263889
O        2.12769831      -0.00856695       3.55447105       34      -0.03113558      -0.00523847       0.03620448
O        0.96257609      -2.25011292       7.38171897       35      -0.04240880      -0.02076339      -0.00883207
O       -0.71730977       2.07668345       3.51202086       36       0.00543965       0.04690453      -0.00883207
O       -0.96257610      -0.81529887       5.61190265       37       0.04240880      -0.00273289      -0.02239766
O       -0.44781245       5.44969613       1.78465472       38      -0.01671286      -0.03893316       0.02263889
O        4.19149224       5.30815000       5.65435283       39       0.03113558       0.02873476       0.02263889
40
Lattice="9.478785840334856 7.42918354641584e-10 -3.7041514021093326e-15 -3.159595280812051 8.936684993240103 -1.2867891903101381e-09 -3.159595279761402 -4.468342495877118 7.73939623062295" Properties=species:S:1:pos:R:3:spacegroup_kinds:I:1:forces:R:3 spacegroup="P 1" unit_cell=conventional occupancy="_JSON {\"0\": {\"In\": 1}, \"1\": {\"In\": 1}, \"2\": {\"In\": 1}, \"3\": {\"In\": 1}, \"4\": {\"In\": 1}, \"5\": {\"In\": 1}, \"6\": {\"In\": 1}, \"7\": {\"In\": 1}, \"8\": {\"In\": 1}, \"9\": {\"In\": 1}, \"10\": {\"In\": 1}, \"11\": {\"In\": 1}, \"12\": {\"In\": 1}, \"13\": {\"In\": 1}, \"14\": {\"In\": 1}, \"15\": {\"In\": 1}, \"16\": {\"O\": 1}, \"17\": {\"O\": 1}, \"18\": {\"O\": 1}, \"19\": {\"O\": 1}, \"20\": {\"O\": 1}, \"21\": {\"O\": 1}, \"22\": {\"O\": 1}, \"23\": {\"O\": 1}, \"24\": {\"O\": 1}, \"25\": {\"O\": 1}, \"26\": {\"O\": 1}, \"27\": {\"O\": 1}, \"28\": {\"O\": 1}, \"29\": {\"O\": 1}, \"30\": {\"O\": 1}, \"31\": {\"O\": 1}, \"32\": {\"O\": 1}, \"33\": {\"O\": 1}, \"34\": {\"O\": 1}, \"35\": {\"O\": 1}, \"36\": {\"O\": 1}, \"37\": {\"O\": 1}, \"38\": {\"O\": 1}, \"39\": {\"O\": 1}}" n_minim_iter=2 energy=-45146.6694398566 stress="0.09104899181168294 -3.7304022096524185e-13 1.7190050247505734e-13 -3.7304022096524185e-13 0.09104899181162715 -4.817211007134301e-13 1.7190050247505734e-13 -4.817211007134301e-13 0.09104899181172799" free_energy=-45146.6694398566 pbc="T T T"
In      -4.45086342       3.14723571       6.15792219        0       0.00137832      -0.00097462       0.00168809
In       7.61045870       1.32110679       1.58147403        1      -0.00137832       0.00097462      -0.00168809
In       1.29126814      -0.91306446       5.45117215        2      -0.00137832       0.00097462      -0.00168809
In      -1.57979764      -2.23417125       3.86969811        3      -0.00000000       0.00000000      -0.00000000
In      -1.29126814       4.26432133       3.51632309        4       0.00137832      -0.00097462      -0.00168809
In       5.02792242      -2.94321454       5.80454717        5       0.00137832       0.00194923       0.00000000
In      -1.29126814       1.52512795       5.80454717        6       0.00137832       0.00194923       0.00000000
In      -1.86832714       7.41155704       1.93484905        7      -0.00137832      -0.00194923       0.00000000
In       4.45086342       0.20402117       4.22307313        8      -0.00137832       0.00097462       0.00168809
In      -1.57979764       4.46834250      -0.00000000        9       0.00000000      -0.00000000       0.00000000
In       4.45086342       6.90653491       0.35337502       10      -0.00137832       0.00097462       0.00168809
In      -1.29126814      -2.43819241       7.38602121       11       0.00137832      -0.00097462      -0.00168809
In       4.45086342       2.94321455       1.93484905       12      -0.00137832      -0.00194923      -0.00000000
In       1.86832714       5.38140696       2.28822408       13       0.00137832      -0.00097462       0.00168809
In       4.73939292       0.00000000      -0.00000000       14      -0.00000000       0.00000000       0.00000000
In       1.57979764       2.23417125       3.86969811       15      -0.00000000       0.00000000       0.00000000
O        1.03682320       4.47773828       4.17919694       16       0.01817133      -0.03038198       0.02362877
O       -2.12277208       3.61459284       5.64166077       17       0.01817133       0.03565411       0.01449718
O       -0.45045674       2.43208732      -0.04957583       18       0.01102772       0.04070540       0.00574808
O       -1.03682320      -0.84435388       2.08146149       19      -0.01817133       0.00527213       0.03812595
O        4.11546150       5.28407377       2.13103731       20       0.02755790      -0.00195347       0.03237787
O        2.20372906       3.03067568       1.77196266       21      -0.02755790      -0.02901680       0.01449718
O        2.20372906       6.72174059       0.35907465       22      -0.02755790       0.02706332       0.01788069
O       -2.44314617       6.31651266       3.82012229       23      -0.03470151      -0.02396550       0.00574808
O        3.61005202       2.03625518       7.78897205       24      -0.01102772      -0.04070540      -0.00574808
O        5.60274144      -1.84817016       3.91927394       25       0.03470151       0.02396550      -0.00574808
O        6.76964730       3.40728099       1.73866080       26      -0.01102772       0.02533068      -0.03237787
O        3.87604440       2.38423787       4.22877277       27      -0.03470151       0.01696073       0.01788069
O        0.71644911       4.70427697       7.42989740       28      -0.03470151       0.00700477      -0.02362877
O        2.44314616      -0.23593447       0.30949883       29       0.03470151      -0.00700477       0.02362877
O       -3.61005202       1.06106152       6.00073543       30       0.01102772      -0.02533068       0.03237787
O        5.28236736       0.85374967       2.09773545       31      -0.01817133      -0.03565411      -0.01449718
O        0.95586622       1.43766682       5.96743357       32       0.02755790       0.02901680      -0.01449718
O        3.61005202      -0.97519366       5.95115960       33      -0.01102772       0.01537472       0.03812595
O        2.12277208      -0.00939578       3.56019928       34      -0.01817133       0.03038198      -0.02362877
O        0.95586622      -2.25339808       7.38032157       35       0.02755790      -0.02706332      -0.01788069
O       -0.71644912       2.08410463       3.51062345       36       0.03470151      -0.01696073      -0.01788069
O       -0.95586622      -0.81573127       5.60835891       37      -0.02755790       0.00195347      -0.03237787
O       -0.45045674       5.44353616       1.78823662       38       0.01102772      -0.01537472      -0.03812595
O        4.19641848       5.31269638       5.65793474       39       0.01817133      -0.00527213      -0.03812595
40
Lattice="9.478785840334867 7.429183546415846e-10 -3.7041514021093255e-15 -3.1595952808120535 8.936684993240108 -1.2867891903101387e-09 -3.1595952797614046 -4.4683424958771205 7.739396230622955" Properties=species:S:1:pos:R:3:spacegroup_kinds:I:1:forces:R:3 spacegroup="P 1" unit_cell=conventional occupancy="_JSON {\"0\": {\"In\": 1}, \"1\": {\"In\": 1}, \"2\": {\"In\": 1}, \"3\": {\"In\": 1}, \"4\": {\"In\": 1}, \"5\": {\"In\": 1}, \"6\": {\"In\": 1}, \"7\": {\"In\": 1}, \"8\": {\"In\": 1}, \"9\": {\"In\": 1}, \"10\": {\"In\": 1}, \"11\": {\"In\": 1}, \"12\": {\"In\": 1}, \"13\": {\"In\": 1}, \"14\": {\"In\": 1}, \"15\": {\"In\": 1}, \"16\": {\"O\": 1}, \"17\": {\"O\": 1}, \"18\": {\"O\": 1}, \"19\": {\"O\": 1}, \"20\": {\"O\": 1}, \"21\": {\"O\": 1}, \"22\": {\"O\": 1}, \"23\": {\"O\": 1}, \"24\": {\"O\": 1}, \"25\": {\"O\": 1}, \"26\": {\"O\": 1}, \"27\": {\"O\": 1}, \"28\": {\"O\": 1}, \"29\": {\"O\": 1}, \"30\": {\"O\": 1}, \"31\": {\"O\": 1}, \"32\": {\"O\": 1}, \"33\": {\"O\": 1}, \"34\": {\"O\": 1}, \"35\": {\"O\": 1}, \"36\": {\"O\": 1}, \"37\": {\"O\": 1}, \"38\": {\"O\": 1}, \"39\": {\"O\": 1}}" n_minim_iter=3 energy=-45146.67129362871 stress="0.09124227314803775 1.4739868804813308e-13 2.114430451483119e-14 1.4739868804813308e-13 0.09124227314911808 1.5831424148547265e-13 2.114430451483119e-14 1.5831424148547265e-13 0.09124227314824962" free_energy=-45146.67129362871 pbc="T T T"
In      -4.45125098       3.14750975       6.15744754        0       0.00741886      -0.00524592       0.00908621
In       7.61084625       1.32083275       1.58194868        1      -0.00741886       0.00524592      -0.00908621
In       1.29165569      -0.91333850       5.45164680        2      -0.00741886       0.00524592      -0.00908621
In      -1.57979764      -2.23417125       3.86969811        3      -0.00000000      -0.00000000       0.00000000
In      -1.29165570       4.26459537       3.51679774        4       0.00741886      -0.00524592      -0.00908621
In       5.02753486      -2.94376262       5.80454717        5       0.00741886       0.01049185      -0.00000000
In      -1.29165570       1.52457987       5.80454717        6       0.00741886       0.01049185      -0.00000000
In      -1.86793959       7.41210512       1.93484905        7      -0.00741886      -0.01049185       0.00000000
In       4.45125097       0.20374713       4.22259848        8      -0.00741886       0.00524592       0.00908621
In      -1.57979764       4.46834250      -0.00000000        9      -0.00000000       0.00000000      -0.00000000
In       4.45125097       6.90626087       0.35290037       10      -0.00741886       0.00524592       0.00908621
In      -1.29165570      -2.43791837       7.38649586       11       0.00741886      -0.00524592      -0.00908621
In       4.45125097       2.94376263       1.93484905       12      -0.00741886      -0.01049185      -0.00000000
In       1.86793958       5.38168100       2.28774942       13       0.00741886      -0.00524592       0.00908621
In       4.73939292       0.00000000      -0.00000000       14       0.00000000       0.00000000       0.00000000
In       1.57979764       2.23417125       3.86969811       15      -0.00000000      -0.00000000       0.00000000
O        1.03790874       4.47558509       4.18106119       16       0.01497267      -0.00251177       0.00473335
O       -2.12168654       3.61728391       5.64259337       17       0.01497267       0.00535508      -0.00019142
O       -0.44958778       2.43493154      -0.04890847       18       0.00767160       0.01051772      -0.00913338
O       -1.03790874      -0.84381600       2.08425833       19      -0.01497267       0.00284332       0.00454193
O        4.11763682       5.28392118       2.13316680       20       0.00005793      -0.00811648       0.01367531
O        2.20155373       3.02875520       1.77289525       21      -0.00005793      -0.01590140      -0.00019142
O        2.20155373       6.72350848       0.36027154       22      -0.00005793       0.00778492       0.01386673
O       -2.44553806       6.31474532       3.82078964       23      -0.00735901      -0.01073876      -0.00913338
O        3.60918305       2.03341097       7.78830470       24      -0.00767160      -0.01051772       0.00913338
O        5.60513334      -1.84640282       3.91860658       25       0.00735901       0.01073876       0.00913338
O        6.76877833       3.40928104       1.73653131       26      -0.00767160      -0.00265087      -0.01367531
O        3.87365250       2.38569949       4.22996966       27      -0.00735901      -0.00254036       0.01386673
O        0.71405722       4.70458269       7.42803315       28      -0.00735901       0.01327912      -0.00473335
O        2.44553806      -0.23624019       0.31136307       29       0.00735901      -0.01327912       0.00473335
O       -3.60918306       1.05906146       6.00286491       30       0.00767160       0.00265087       0.01367531
O        5.28128182       0.85105859       2.09680286       31      -0.01497267      -0.00535508       0.00019142
O        0.95804154       1.43958730       5.96650097       32       0.00005793       0.01590140       0.00019142
O        3.60918305      -0.97434950       5.95395644       33      -0.00767160       0.01316860       0.00454193
O        2.12168654      -0.00724258       3.55833504       34      -0.01497267       0.00251176      -0.00473335
O        0.95804154      -2.25516598       7.37912468       35       0.00005793      -0.00778492      -0.01386673
O       -0.71405723       2.08264301       3.50942657       36       0.00735901       0.00254036      -0.01386673
O       -0.95804155      -0.81557868       5.60622943       37      -0.00005793       0.00811648      -0.01367531
O       -0.44958778       5.44269200       1.78543978       38       0.00767160      -0.01316860      -0.00454193
O        4.19750402       5.31215850       5.65513790       39       0.01497267      -0.00284332      -0.00454193
40
Lattice="9.478785840334867 7.429183546415847e-10 -3.704151402109326e-15 -3.159595280812054 8.936684993240108 -1.2867891903101387e-09 -3.159595279761405 -4.4683424958771205 7.739396230622956" Properties=species:S:1:pos:R:3:spacegroup_kinds:I:1:forces:R:3 spacegroup="P 1" unit_cell=conventional occupancy="_JSON {\"0\": {\"In\": 1}, \"1\": {\"In\": 1}, \"2\": {\"In\": 1}, \"3\": {\"In\": 1}, \"4\": {\"In\": 1}, \"5\": {\"In\": 1}, \"6\": {\"In\": 1}, \"7\": {\"In\": 1}, \"8\": {\"In\": 1}, \"9\": {\"In\": 1}, \"10\": {\"In\": 1}, \"11\": {\"In\": 1}, \"12\": {\"In\": 1}, \"13\": {\"In\": 1}, \"14\": {\"In\": 1}, \"15\": {\"In\": 1}, \"16\": {\"O\": 1}, \"17\": {\"O\": 1}, \"18\": {\"O\": 1}, \"19\": {\"O\": 1}, \"20\": {\"O\": 1}, \"21\": {\"O\": 1}, \"22\": {\"O\": 1}, \"23\": {\"O\": 1}, \"24\": {\"O\": 1}, \"25\": {\"O\": 1}, \"26\": {\"O\": 1}, \"27\": {\"O\": 1}, \"28\": {\"O\": 1}, \"29\": {\"O\": 1}, \"30\": {\"O\": 1}, \"31\": {\"O\": 1}, \"32\": {\"O\": 1}, \"33\": {\"O\": 1}, \"34\": {\"O\": 1}, \"35\": {\"O\": 1}, \"36\": {\"O\": 1}, \"37\": {\"O\": 1}, \"38\": {\"O\": 1}, \"39\": {\"O\": 1}}" n_minim_iter=4 energy=-45146.67188643278 stress="0.09090681069572909 3.049842776356033e-14 2.3607070454454677e-13 3.049842776356033e-14 0.09090681069495903 4.450853545651225e-13 2.3607070454454677e-13 4.450853545651225e-13 0.0909068106952462" free_energy=-45146.67188643278 pbc="T T T"
In      -4.44982218       3.14649944       6.15919745        0       0.00017988      -0.00012720       0.00022031
In       7.60941746       1.32184306       1.58019877        1      -0.00017988       0.00012720      -0.00022031
In       1.29022690      -0.91232819       5.44989689        2      -0.00017988       0.00012720      -0.00022031
In      -1.57979764      -2.23417125       3.86969811        3      -0.00000000       0.00000000      -0.00000000
In      -1.29022690       4.26358506       3.51504783        4       0.00017988      -0.00012720      -0.00022031
In       5.02896366      -2.94174200       5.80454717        5       0.00017988       0.00025439       0.00000000
In      -1.29022690       1.52660050       5.80454717        6       0.00017988       0.00025439       0.00000000
In      -1.86936839       7.41008450       1.93484905        7      -0.00017988      -0.00025439       0.00000000
In       4.44982218       0.20475744       4.22434839        8      -0.00017988       0.00012720       0.00022031
In      -1.57979764       4.46834250      -0.00000000        9      -0.00000000       0.00000000      -0.00000000
In       4.44982218       6.90727118       0.35465028       10      -0.00017988       0.00012720       0.00022031
In      -1.29022690      -2.43892868       7.38474595       11       0.00017988      -0.00012720      -0.00022031
In       4.44982218       2.94174200       1.93484905       12      -0.00017988      -0.00025439      -0.00000000
In       1.86936838       5.38067069       2.28949934       13       0.00017988      -0.00012720       0.00022031
In       4.73939292       0.00000000      -0.00000000       14      -0.00000000       0.00000000       0.00000000
In       1.57979764       2.23417125       3.86969811       15       0.00000000      -0.00000000      -0.00000000
O        1.03927713       4.47457383       4.18140826       16       0.01104950       0.00729700       0.00204056
O       -2.12031815       3.61809012       5.64329561       17       0.01104950      -0.00188133      -0.00733967
O       -0.44932497       2.43651951      -0.04956030       18       0.00878911      -0.00028299      -0.01010806
O       -1.03927713      -0.84402105       2.08530764       19      -0.01104950       0.00541567      -0.00529911
O        4.11794079       5.28374991       2.13486793       20      -0.00545690      -0.01125157       0.00480895
O        2.20124977       3.02719634       1.77359749       21       0.00545690      -0.00979046      -0.00733967
O        2.20124977       6.72489607       0.36127043       22       0.00545690      -0.00146111       0.01214862
O       -2.44694761       6.31396823       3.82013782       23       0.00319651      -0.00819212      -0.01010806
O        3.60892025       2.03182299       7.78895652       24      -0.00878911       0.00028299       0.01010806
O        5.60654289      -1.84562572       3.91925841       25      -0.00319651       0.00819212       0.01010806
O        6.76851553       3.40951053       1.73483018       26      -0.00878911      -0.00889534      -0.00480895
O        3.87224295       2.38552354       4.23096855       27       0.00319651      -0.00465778       0.01214862
O        0.71264767       4.70553573       7.42768608       28       0.00319651       0.01284990      -0.00204056
O        2.44694761      -0.23719323       0.31171014       29      -0.00319651      -0.01284990       0.00204056
O       -3.60892025       1.05883197       6.00456605       30       0.00878911       0.00889534       0.00480895
O        5.27991343       0.85025239       2.09610062       31      -0.01104950       0.00188133       0.00733967
O        0.95834551       1.44114616       5.96579873       32      -0.00545690       0.00979046       0.00733967
O        3.60892025      -0.97299102       5.95500575       33      -0.00878911       0.00861234      -0.00529911
O        2.12031815      -0.00623133       3.55798797       34      -0.01104950      -0.00729700      -0.00204056
O        0.95834551      -2.25655357       7.37812579       35      -0.00545690       0.00146111      -0.01214862
O       -0.71264767       2.08281896       3.50842767       36      -0.00319651       0.00465778      -0.01214862
O       -0.95834551      -0.81540741       5.60452829       37       0.00545690       0.01125157      -0.00480895
O       -0.44932498       5.44133352       1.78439047       38       0.00878911      -0.00861234       0.00529911
O        4.19887241       5.31236355       5.65408858       39       0.01104950      -0.00541567       0.00529911
40
Lattice="9.478785840334872 7.429183546415855e-10 -3.7041514021093255e-15 -3.1595952808120575 8.936684993240112 -1.2867891903101393e-09 -3.1595952797614086 -4.468342495877122 7.739396230622962" Properties=species:S:1:pos:R:3:spacegroup_kinds:I:1:forces:R:3 spacegroup="P 1" unit_cell=conventional occupancy="_JSON {\"0\": {\"In\": 1}, \"1\": {\"In\": 1}, \"2\": {\"In\": 1}, \"3\": {\"In\": 1}, \"4\": {\"In\": 1}, \"5\": {\"In\": 1}, \"6\": {\"In\": 1}, \"7\": {\"In\": 1}, \"8\": {\"In\": 1}, \"9\": {\"In\": 1}, \"10\": {\"In\": 1}, \"11\": {\"In\": 1}, \"12\": {\"In\": 1}, \"13\": {\"In\": 1}, \"14\": {\"In\": 1}, \"15\": {\"In\": 1}, \"16\": {\"O\": 1}, \"17\": {\"O\": 1}, \"18\": {\"O\": 1}, \"19\": {\"O\": 1}, \"20\": {\"O\": 1}, \"21\": {\"O\": 1}, \"22\": {\"O\": 1}, \"23\": {\"O\": 1}, \"24\": {\"O\": 1}, \"25\": {\"O\": 1}, \"26\": {\"O\": 1}, \"27\": {\"O\": 1}, \"28\": {\"O\": 1}, \"29\": {\"O\": 1}, \"30\": {\"O\": 1}, \"31\": {\"O\": 1}, \"32\": {\"O\": 1}, \"33\": {\"O\": 1}, \"34\": {\"O\": 1}, \"35\": {\"O\": 1}, \"36\": {\"O\": 1}, \"37\": {\"O\": 1}, \"38\": {\"O\": 1}, \"39\": {\"O\": 1}}" n_minim_iter=5 energy=-45146.672014787044 stress="0.09067210395409078 3.0671261910815225e-13 3.738908017149216e-13 3.0671261910815225e-13 0.09067210395308493 4.1144378728546763e-13 3.738908017149216e-13 4.1144378728546763e-13 0.09067210395366504" free_energy=-45146.672014787044 pbc="T T T"
In      -4.44889834       3.14584619       6.16032892        0      -0.00520999       0.00368402      -0.00638091
In       7.60849362       1.32249631       1.57906731        1       0.00520999      -0.00368402       0.00638091
In       1.28930306      -0.91167493       5.44876542        2       0.00520999      -0.00368402       0.00638091
In      -1.57979764      -2.23417125       3.86969811        3      -0.00000000      -0.00000000      -0.00000000
In      -1.28930306       4.26293181       3.51391636        4      -0.00520999       0.00368402       0.00638091
In       5.02988750      -2.94043549       5.80454717        5      -0.00520999      -0.00736804      -0.00000000
In      -1.28930306       1.52790700       5.80454717        6      -0.00520999      -0.00736804      -0.00000000
In      -1.87029222       7.40877799       1.93484905        7       0.00520999       0.00736804       0.00000000
In       4.44889834       0.20541069       4.22547986        8       0.00520999      -0.00368402      -0.00638091
In      -1.57979764       4.46834250      -0.00000000        9       0.00000000       0.00000000      -0.00000000
In       4.44889834       6.90792444       0.35578174       10       0.00520999      -0.00368402      -0.00638091
In      -1.28930306      -2.43958193       7.38361448       11      -0.00520999       0.00368402       0.00638091
In       4.44889834       2.94043550       1.93484905       12       0.00520999       0.00736804       0.00000000
In       1.87029222       5.38001743       2.29063080       13      -0.00520999       0.00368402      -0.00638091
In       4.73939292       0.00000000      -0.00000000       14       0.00000000      -0.00000000       0.00000000
In       1.57979764       2.23417125       3.86969811       15       0.00000000      -0.00000000       0.00000000
O        1.04035621       4.47433915       4.18152498       16       0.00843732       0.00896184       0.00180952
O       -2.11923907       3.61830854       5.64344049       17       0.00843732      -0.00291383      -0.00866594
O       -0.44898061       2.43725745      -0.05031526       18       0.00851456      -0.00296844      -0.00857135
O       -1.04035621      -0.84403731       2.08556924       19      -0.00843732       0.00604801      -0.00685642
O        4.11778702       5.28333029       2.13588449       20      -0.00555963      -0.01099668       0.00171492
O        2.20140353       3.02610616       1.77374237       21       0.00555963      -0.00698351      -0.00866594
O        2.20140353       6.72556662       0.36214211       22       0.00555963      -0.00401317       0.01038086
O       -2.44752856       6.31339757       3.81938286       23       0.00563686      -0.00703812      -0.00857135
O        3.60857589       2.03108505       7.78971148       24      -0.00851456       0.00296844       0.00857135
O        5.60712384      -1.84505507       3.92001337       25      -0.00563686       0.00703812       0.00857135
O        6.76817117       3.40922569       1.73381362       26      -0.00851456      -0.00890723      -0.00171492
O        3.87166200       2.38515505       4.23184023       27       0.00563686      -0.00390394       0.01038086
O        0.71206672       4.70647487       7.42756936       28       0.00563686       0.01094206      -0.00180952
O        2.44752856      -0.23813237       0.31182686       29      -0.00563686      -0.01094206       0.00180952
O       -3.60857589       1.05911681       6.00558261       30       0.00851456       0.00890723       0.00171492
O        5.27883435       0.85003396       2.09595574       31      -0.00843732       0.00291383       0.00866594
O        0.95819174       1.44223634       5.96565385       32      -0.00555963       0.00698351       0.00866594
O        3.60857589      -0.97196823       5.95526735       33      -0.00851456       0.00593878      -0.00685642
O        2.11923907      -0.00599665       3.55787125       34      -0.00843732      -0.00896184      -0.00180952
O        0.95819174      -2.25722412       7.37725411       35      -0.00555963       0.00401317      -0.01038086
O       -0.71206672       2.08318745       3.50755599       36      -0.00563686       0.00390394      -0.01038086
O       -0.95819175      -0.81498779       5.60351173       37       0.00555963       0.01099668      -0.00171492
O       -0.44898061       5.44031073       1.78412887       38       0.00851456      -0.00593878       0.00685642
O        4.19995149       5.31237981       5.65382699       39       0.00843732      -0.00604801       0.00685642
40