40
Lattice="9.277047990974165 7.271093751018466e-10 4.139717929215914e-15 -3.092349331010243 8.746484724838783 -1.259400542786838e-09 -3.092349329981959 -4.373242361692274 7.574677966362528" Properties=species:S:1:pos:R:3:spacegroup_kinds:I:1:forces:R:3 spacegroup="P 1" unit_cell=conventional occupancy="_JSON {\"0\": {\"In\": 1}, \"1\": {\"In\": 1}, \"2\": {\"In\": 1}, \"3\": {\"In\": 1}, \"4\": {\"In\": 1}, \"5\": {\"In\": 1}, \"6\": {\"In\": 1}, \"7\": {\"In\": 1}, \"8\": {\"In\": 1}, \"9\": {\"In\": 1}, \"10\": {\"In\": 1}, \"11\": {\"In\": 1}, \"12\": {\"In\": 1}, \"13\": {\"In\": 1}, \"14\": {\"In\": 1}, \"15\": {\"In\": 1}, \"16\": {\"O\": 1}, \"17\": {\"O\": 1}, \"18\": {\"O\": 1}, \"19\": {\"O\": 1}, \"20\": {\"O\": 1}, \"21\": {\"O\": 1}, \"22\": {\"O\": 1}, \"23\": {\"O\": 1}, \"24\": {\"O\": 1}, \"25\": {\"O\": 1}, \"26\": {\"O\": 1}, \"27\": {\"O\": 1}, \"28\": {\"O\": 1}, \"29\": {\"O\": 1}, \"30\": {\"O\": 1}, \"31\": {\"O\": 1}, \"32\": {\"O\": 1}, \"33\": {\"O\": 1}, \"34\": {\"O\": 1}, \"35\": {\"O\": 1}, \"36\": {\"O\": 1}, \"37\": {\"O\": 1}, \"38\": {\"O\": 1}, \"39\": {\"O\": 1}}" n_minim_iter=6 energy=-45149.74762641928 stress="0.05871549146502132 1.9678865072646618e-14 5.235019762720083e-13 1.9678865072646618e-14 0.05871549146503678 2.1573838126607254e-13 5.235019762720083e-13 2.1573838126607254e-13 0.05871549146581977" free_energy=-45149.74762641928 pbc="T T T"
In      -4.39063846       3.10465023       5.98460502        0      -0.00563940       0.00398766      -0.00690682
In       7.48298778       1.26859214       1.59007294        1       0.00563940      -0.00398766       0.00690682
In       1.29828912      -0.91802904       5.37741193        2       0.00563940      -0.00398766       0.00690682
In      -1.54617467      -2.18662118       3.78733898        3      -0.00000000       0.00000000       0.00000000
In      -1.29828913       4.19796082       3.48374243        4      -0.00563940       0.00398766       0.00690682
In       4.88640954      -2.92936867       5.68100847        5      -0.00563940      -0.00797531       0.00000000
In      -1.29828913       1.44387369       5.68100847        6      -0.00563940      -0.00797531       0.00000000
In      -1.79406021       7.30261104       1.89366949        7       0.00563940       0.00797531      -0.00000000
In       4.39063845       0.17528155       4.09093553        8       0.00563940      -0.00398766      -0.00690682
In      -1.54617467       4.37324236      -0.00000000        9      -0.00000000       0.00000000       0.00000000
In       4.39063845       6.73514509       0.30359654       10       0.00563940      -0.00398766      -0.00690682
In      -1.29828913      -2.36190273       7.27108142       11      -0.00563940       0.00398766       0.00690682
In       4.39063845       2.92936868       1.89366949       12       0.00563940       0.00797531       0.00000000
In       1.79406020       5.29127141       2.19726603       13      -0.00563940       0.00398766      -0.00690682
In       4.63852399       0.00000000      -0.00000000       14       0.00000000       0.00000000       0.00000000
In       1.54617466       2.18662118       3.78733898       15       0.00000000      -0.00000000      -0.00000000
O        0.97995473       4.37997869       4.10458319       16       0.00185891       0.00018229      -0.00268834
O       -2.11239460       3.55130515       5.51655254       17       0.00185891      -0.00241932       0.00118630
O       -0.44192719       2.37010632      -0.01222903       18      -0.00148945      -0.00005167      -0.00291459
O       -0.97995474      -0.81520088       2.04645776       19      -0.00185891      -0.00223702      -0.00150204
O        4.05233414       5.18138281       2.05868679       20      -0.00290059       0.00055428       0.00141255
O        2.13236452       2.99443752       1.72921355       21       0.00290059      -0.00094616       0.00118630
O        2.13236452       6.56018765       0.32947324       22       0.00290059       0.00150045       0.00022625
O       -2.38186673       6.18648105       3.77510995       23      -0.00044777       0.00142149      -0.00291459
O        3.53427651       2.00313605       7.58690699       24       0.00148945       0.00005167       0.00291459
O        5.47421606      -1.81323869       3.79956801       25       0.00044777      -0.00142149       0.00291459
O        6.62662584       3.36108369       1.72865218       26       0.00148945      -0.00254994      -0.00141255
O        3.80283193       2.36272178       4.11681222       27      -0.00044777      -0.00323485       0.00022625
O        0.71048260       4.57052426       7.25743375       28      -0.00044777       0.00181337       0.00268834
O        2.38186673      -0.19728190       0.31724421       29       0.00044777      -0.00181337      -0.00268834
O       -3.53427652       1.01215868       5.84602578       30      -0.00148945       0.00254994       0.00141255
O        5.20474392       0.82193721       2.05812542       31      -0.00185891       0.00241932      -0.00118630
O        0.95998481       1.37880484       5.84546441       32      -0.00290059       0.00094616      -0.00118630
O        3.53427651      -0.99097737       5.83379675       33       0.00148945       0.00249827      -0.00150204
O        2.11239459      -0.00673632       3.47009477       34      -0.00185891      -0.00018229       0.00268834
O        0.95998481      -2.18694529       7.24520472       35      -0.00290059      -0.00150045      -0.00022625
O       -0.71048260       2.01052059       3.45786574       36       0.00044777       0.00323485      -0.00022625
O       -0.95998481      -0.80814045       5.51599117       37       0.00290059      -0.00055428      -0.00141255
O       -0.44192719       5.36421973       1.74088121       38      -0.00148945      -0.00249827       0.00150204
O        4.07230406       5.18844325       5.52822020       39       0.00185891       0.00223702       0.00150204
