40
Lattice="9.137522313830836 7.161701621426669e-10 -7.065692442308436e-16 -3.045840771952161 8.614938654898834 -1.2404499626290418e-09 -3.0458407709393396 -4.307469326733241 7.460755728013905" Properties=species:S:1:pos:R:3:spacegroup_kinds:I:1:forces:R:3 spacegroup="P 1" unit_cell=conventional occupancy="_JSON {\"0\": {\"In\": 1}, \"1\": {\"In\": 1}, \"2\": {\"In\": 1}, \"3\": {\"In\": 1}, \"4\": {\"In\": 1}, \"5\": {\"In\": 1}, \"6\": {\"In\": 1}, \"7\": {\"In\": 1}, \"8\": {\"In\": 1}, \"9\": {\"In\": 1}, \"10\": {\"In\": 1}, \"11\": {\"In\": 1}, \"12\": {\"In\": 1}, \"13\": {\"In\": 1}, \"14\": {\"In\": 1}, \"15\": {\"In\": 1}, \"16\": {\"O\": 1}, \"17\": {\"O\": 1}, \"18\": {\"O\": 1}, \"19\": {\"O\": 1}, \"20\": {\"O\": 1}, \"21\": {\"O\": 1}, \"22\": {\"O\": 1}, \"23\": {\"O\": 1}, \"24\": {\"O\": 1}, \"25\": {\"O\": 1}, \"26\": {\"O\": 1}, \"27\": {\"O\": 1}, \"28\": {\"O\": 1}, \"29\": {\"O\": 1}, \"30\": {\"O\": 1}, \"31\": {\"O\": 1}, \"32\": {\"O\": 1}, \"33\": {\"O\": 1}, \"34\": {\"O\": 1}, \"35\": {\"O\": 1}, \"36\": {\"O\": 1}, \"37\": {\"O\": 1}, \"38\": {\"O\": 1}, \"39\": {\"O\": 1}}" n_minim_iter=7 energy=-45151.047372719295 stress="0.03706918648051874 -1.0117448171643864e-14 -8.324574200269762e-13 -1.0117448171643864e-14 0.03706918647961086 -5.767574950978229e-14 -8.324574200269762e-13 -5.767574950978229e-14 0.037069186480595984" free_energy=-45151.047372719295 pbc="T T T"
In      -4.34301207       3.07097328       5.87205184        0      -0.00324264       0.00229289      -0.00397140
In       7.38885283       1.23649605       1.58870388        1       0.00324264      -0.00229289       0.00397140
In       1.29717129      -0.91723861       5.31908175        2       0.00324264      -0.00229289       0.00397140
In      -1.52292039      -2.15373466       3.73037786        3      -0.00000000      -0.00000000       0.00000000
In      -1.29717129       4.14784061       3.45389282        4      -0.00324264       0.00229289       0.00397140
In       4.79451025      -2.91134456       5.59556679        5      -0.00324264      -0.00458578       0.00000000
In      -1.29717129       1.39612476       5.59556679        6      -0.00324264      -0.00458578       0.00000000
In      -1.74866948       7.21881390       1.86518893        7       0.00324264       0.00458578      -0.00000000
In       4.34301206       0.15962872       4.00686291        8       0.00324264      -0.00229289      -0.00397140
In      -1.52292039       4.30746933      -0.00000000        9       0.00000000      -0.00000000      -0.00000000
In       4.34301206       6.62083271       0.27648504       10       0.00324264      -0.00229289      -0.00397140
In      -1.29717129      -2.31336338       7.18427068       11      -0.00324264       0.00229289       0.00397140
In       4.34301206       2.91134457       1.86518893       12       0.00324264       0.00458578       0.00000000
In       1.74866948       5.22470795       2.14167397       13      -0.00324264       0.00229289      -0.00397140
In       4.56876116       0.00000000      -0.00000000       14       0.00000000      -0.00000000       0.00000000
In       1.52292038       2.15373467       3.73037786       15      -0.00000000       0.00000000      -0.00000000
O        0.93568499       4.31241377       4.05097440       16       0.00266732       0.00352875      -0.00572635
O       -2.11015579       3.50577453       5.43098651       17       0.00266732      -0.00672354      -0.00019282
O       -0.43928845       2.32429291       0.01661698       18      -0.00212297      -0.00333630      -0.00605969
O       -0.93568499      -0.79675036       2.02120519       19      -0.00266732      -0.00319479      -0.00591916
O        4.00866118       5.11381351       2.00458820       20      -0.00722812      -0.00030378       0.00014053
O        2.08302036       2.97461711       1.70060865       21       0.00722812      -0.00027359      -0.00019282
O        2.08302036       6.44666573       0.30397955       22       0.00722812      -0.00003019       0.00033334
O       -2.33779385       6.10060481       3.74699485       23       0.00243784       0.00311365      -0.00605969
O        3.48512922       1.98317643       7.44413874       24       0.00212297       0.00333630       0.00605969
O        5.38363462      -1.79313548       3.71376088       25      -0.00243784      -0.00311365       0.00605969
O        6.53096999       3.33027185       1.72578965       26       0.00212297      -0.00691600      -0.00014053
O        3.75388769       2.34842499       4.03435742       27       0.00243784      -0.00680467       0.00033334
O        0.70804692       4.47337819       7.14015918       28       0.00243784       0.00369102       0.00572635
O        2.33779385      -0.16590886       0.32059654       29      -0.00243784      -0.00369102      -0.00572635
O       -3.48512922       0.97719748       5.73496607       30      -0.00212297       0.00691600       0.00014053
O        5.15599655       0.80169480       2.02976921       31      -0.00266732       0.00672354       0.00019282
O        0.96282041       1.33285222       5.76014708       32      -0.00722812       0.00027359       0.00019282
O        3.48512922      -1.00597894       5.75158305       33       0.00212297       0.00357970      -0.00591916
O        2.11015578      -0.00494444       3.40978132       34      -0.00266732      -0.00352875       0.00572635
O        0.96282041      -2.13919640       7.15677617       35      -0.00722812       0.00003019      -0.00033334
O       -0.70804693       1.95904434       3.42639830       36      -0.00243784       0.00680467      -0.00033334
O       -0.96282041      -0.80634418       5.45616752       37       0.00722812       0.00030378      -0.00014053
O       -0.43928845       5.31344827       1.70917267       38      -0.00212297      -0.00357970       0.00591916
O        3.98152576       5.10421969       5.43955053       39       0.00266732       0.00319479       0.00591916
