40
Lattice="8.694369222494492 6.814363806618453e-10 6.052221017512728e-15 -2.8981230748072964 8.197129913593468 -1.1802935776406184e-09 -2.8981230738436046 -4.098564956115291 7.098922744080154" Properties=species:S:1:pos:R:3:spacegroup_kinds:I:1:forces:R:3 spacegroup="P 1" unit_cell=conventional occupancy="_JSON {\"0\": {\"In\": 1}, \"1\": {\"In\": 1}, \"2\": {\"In\": 1}, \"3\": {\"In\": 1}, \"4\": {\"In\": 1}, \"5\": {\"In\": 1}, \"6\": {\"In\": 1}, \"7\": {\"In\": 1}, \"8\": {\"In\": 1}, \"9\": {\"In\": 1}, \"10\": {\"In\": 1}, \"11\": {\"In\": 1}, \"12\": {\"In\": 1}, \"13\": {\"In\": 1}, \"14\": {\"In\": 1}, \"15\": {\"In\": 1}, \"16\": {\"O\": 1}, \"17\": {\"O\": 1}, \"18\": {\"O\": 1}, \"19\": {\"O\": 1}, \"20\": {\"O\": 1}, \"21\": {\"O\": 1}, \"22\": {\"O\": 1}, \"23\": {\"O\": 1}, \"24\": {\"O\": 1}, \"25\": {\"O\": 1}, \"26\": {\"O\": 1}, \"27\": {\"O\": 1}, \"28\": {\"O\": 1}, \"29\": {\"O\": 1}, \"30\": {\"O\": 1}, \"31\": {\"O\": 1}, \"32\": {\"O\": 1}, \"33\": {\"O\": 1}, \"34\": {\"O\": 1}, \"35\": {\"O\": 1}, \"36\": {\"O\": 1}, \"37\": {\"O\": 1}, \"38\": {\"O\": 1}, \"39\": {\"O\": 1}}" n_minim_iter=6 energy=-45150.02321559173 stress="-0.03638362042268464 2.9061207260200996e-12 -3.5853254801255373e-12 2.9061207260200996e-12 -0.0363836204181999 3.3518320797750716e-12 -3.5853254801255373e-12 3.3518320797750716e-12 -0.03638362042683832" free_energy=-45150.02321559173 pbc="T T T"
In      -4.15288874       2.93653579       5.56215492        0      -0.00184901       0.00130745      -0.00226456
In       7.05101181       1.16202917       1.53676781        1       0.00184901      -0.00130745       0.00226456
In       1.25476567      -0.88725331       5.08622919        2       0.00184901      -0.00130745       0.00226456
In      -1.44906154      -2.04928248       3.54946137        3      -0.00000000       0.00000000      -0.00000000
In      -1.25476567       3.96117703       3.31149850        4      -0.00184901       0.00130745       0.00226456
In       4.54148048      -2.79914786       5.32419206        5      -0.00184901      -0.00261489      -0.00000000
In      -1.25476567       1.29941709       5.32419206        6      -0.00184901      -0.00261489      -0.00000000
In      -1.64335741       6.89771282       1.77473068        7       0.00184901       0.00261489       0.00000000
In       4.15288874       0.13738793       3.78742424        8       0.00184901      -0.00130745      -0.00226456
In      -1.44906154       4.09856496      -0.00000000        9      -0.00000000      -0.00000000      -0.00000000
In       4.15288874       6.28523536       0.23796287       10       0.00184901      -0.00130745      -0.00226456
In      -1.25476567      -2.18667040       6.86095987       11      -0.00184901       0.00130745       0.00226456
In       4.15288874       2.79914787       1.77473068       12       0.00184901       0.00261489      -0.00000000
In       1.64335740       4.98581827       2.01269355       13      -0.00184901       0.00130745      -0.00226456
In       4.34718461       0.00000000      -0.00000000       14      -0.00000000      -0.00000000      -0.00000000
In       1.44906154       2.04928248       3.54946137       15       0.00000000      -0.00000000      -0.00000000
O        0.86689120       4.10262854       3.86173301       16      -0.00042111      -0.00294252       0.00108210
O       -2.03123188       3.34232710       5.16453707       17      -0.00042111       0.00240838       0.00200725
O       -0.42019298       2.20315057       0.03872596       18      -0.00064396       0.00256596       0.00173431
O       -0.86689120      -0.75217428       1.92734734       19       0.00042111      -0.00053414       0.00308934
O        3.82825350       4.87309768       1.88862138       20       0.00241101       0.00153544       0.00135503
O        1.96799265       2.85023723       1.61507570       21      -0.00241101      -0.00040577       0.00200725
O        1.96799265       6.12142541       0.27354567       22      -0.00241101       0.00194121      -0.00065222
O       -2.21721461       5.80962565       3.58818733       23      -0.00263386      -0.00024819       0.00173431
O        3.31831605       1.89541439       7.06019678       24       0.00064396      -0.00256596      -0.00173431
O        5.11533768      -1.71106069       3.51073541       25       0.00263386       0.00024819      -0.00173431
O        6.21643912       3.18439543       1.66083999       26       0.00064396       0.00278494      -0.00135503
O        3.57903154       2.25193104       3.82300705       27      -0.00263386       0.00162605      -0.00065222
O        0.68090847       4.23413819       6.78665110       28      -0.00263386      -0.00137786      -0.00108210
O        2.21721460      -0.13557322       0.31227164       29       0.00263386       0.00137786       0.00108210
O       -3.31831605       0.91416953       5.43808275       30      -0.00064396      -0.00278494       0.00135503
O        4.92935495       0.75623786       1.93438566       31       0.00042111      -0.00240838      -0.00200725
O        0.93013043       1.24832774       5.48384704       32       0.00241101       0.00040577      -0.00200725
O        3.31831605      -0.98124486       5.47680871       33       0.00064396      -0.00021898       0.00308934
O        2.03123187      -0.00406358       3.23718973       34       0.00042111       0.00294252      -0.00108210
O        0.93013043      -2.02286045       6.82537706       35       0.00241101      -0.00194121       0.00065222
O       -0.68090847       1.84663392       3.27591569       36       0.00263386      -0.00162605       0.00065222
O       -0.93013043      -0.77453272       5.21030136       37      -0.00241101      -0.00153544      -0.00135503
O       -0.42019298       5.07980982       1.62211403       38      -0.00064396       0.00021898      -0.00308934
O        3.76501427       4.85073924       5.17157540       39      -0.00042111       0.00053414      -0.00308934
