40
Lattice="8.283632641788522 6.492440729240499e-10 1.77673649087348e-14 -2.7612108812082865 7.809883751606119 -1.12454364936537e-09 -2.7612108802901307 -3.9049418751538014 6.7635577302439" Properties=species:S:1:pos:R:3:spacegroup_kinds:I:1:forces:R:3 spacegroup="P 1" unit_cell=conventional occupancy="_JSON {\"0\": {\"In\": 1}, \"1\": {\"In\": 1}, \"2\": {\"In\": 1}, \"3\": {\"In\": 1}, \"4\": {\"In\": 1}, \"5\": {\"In\": 1}, \"6\": {\"In\": 1}, \"7\": {\"In\": 1}, \"8\": {\"In\": 1}, \"9\": {\"In\": 1}, \"10\": {\"In\": 1}, \"11\": {\"In\": 1}, \"12\": {\"In\": 1}, \"13\": {\"In\": 1}, \"14\": {\"In\": 1}, \"15\": {\"In\": 1}, \"16\": {\"O\": 1}, \"17\": {\"O\": 1}, \"18\": {\"O\": 1}, \"19\": {\"O\": 1}, \"20\": {\"O\": 1}, \"21\": {\"O\": 1}, \"22\": {\"O\": 1}, \"23\": {\"O\": 1}, \"24\": {\"O\": 1}, \"25\": {\"O\": 1}, \"26\": {\"O\": 1}, \"27\": {\"O\": 1}, \"28\": {\"O\": 1}, \"29\": {\"O\": 1}, \"30\": {\"O\": 1}, \"31\": {\"O\": 1}, \"32\": {\"O\": 1}, \"33\": {\"O\": 1}, \"34\": {\"O\": 1}, \"35\": {\"O\": 1}, \"36\": {\"O\": 1}, \"37\": {\"O\": 1}, \"38\": {\"O\": 1}, \"39\": {\"O\": 1}}" n_minim_iter=7 energy=-45144.191968015475 stress="-0.05750494852689274 -3.5855197027834826e-12 -2.5027293463137543e-13 -3.5855197027834826e-12 -0.057504948522751655 -5.841129454995474e-13 -2.5027293463137543e-13 -5.841129454995474e-13 -0.057504948528092244" free_energy=-45144.191968015475 pbc="T T T"
In      -3.98322040       2.81656216       5.26690783        0       0.00141477      -0.00100039       0.00173273
In       6.74443128       1.08837972       1.49664989        1      -0.00141477       0.00100039      -0.00173273
In       1.22200952      -0.86409122       4.87842876        2      -0.00141477       0.00100039      -0.00173273
In      -1.38060544      -1.95247094       3.38177886        3      -0.00000000       0.00000000       0.00000000
In      -1.22200952       3.79279763       3.18753932        4       0.00141477      -0.00100039      -0.00173273
In       4.30041224      -2.70441790       5.07266830        5       0.00141477       0.00200078      -0.00000000
In      -1.22200952       1.20052397       5.07266829        6       0.00141477       0.00200078       0.00000000
In      -1.53920136       6.60935978       1.69088943        7      -0.00141477      -0.00200078      -0.00000000
In       3.98322040       0.11214425       3.57601840        8      -0.00141477       0.00100039       0.00173273
In      -1.38060544       3.90494188      -0.00000000        9       0.00000000       0.00000000      -0.00000000
In       3.98322040       5.96955707       0.19423954       10      -0.00141477       0.00100039       0.00173273
In      -1.22200952      -2.06461519       6.56931819       11       0.00141477      -0.00100039      -0.00173273
In       3.98322040       2.70441791       1.69088943       12      -0.00141477      -0.00200078       0.00000000
In       1.53920136       4.76903310       1.88512897       13       0.00141477      -0.00100039       0.00173273
In       4.14181632       0.00000000      -0.00000000       14       0.00000000       0.00000000       0.00000000
In       1.38060544       1.95247094       3.38177886       15       0.00000000       0.00000000      -0.00000000
O        0.69967961       3.87699782       3.70110038       16       0.00019524      -0.00252149      -0.00151429
O       -2.06153127       3.21921898       4.93720780       17       0.00019524      -0.00005067       0.00294082
O       -0.43962512       2.07235814       0.16007131       18      -0.00235998       0.00175614      -0.00018867
O       -0.69967961      -0.71366695       1.87475045       19      -0.00019524      -0.00257216       0.00142653
O        3.72228585       4.71102604       1.71467914       20      -0.00011285       0.00246323       0.00161519
O        1.80013591       2.82302827       1.55542893       21       0.00011285      -0.00016718       0.00294082
O        1.80013591       5.79293965       0.15925020       22       0.00011285       0.00263042      -0.00132563
O       -2.10037970       5.58110930       3.54185018       23      -0.00244236       0.00163963      -0.00018867
O        3.20083599       1.83258374       6.60348641       24       0.00235998      -0.00175614       0.00018867
O        4.86159058      -1.67616742       3.22170755       25       0.00244236      -0.00163963       0.00018867
O        5.96204688       3.12727584       1.66709972       26       0.00235998       0.00071468      -0.00161519
O        3.42204206       2.22924852       3.54102907       27      -0.00244236      -0.00098320      -0.00132563
O        0.66083118       3.90446781       6.44423621       28      -0.00244236      -0.00065642       0.00151429
O        2.10037970       0.00047407       0.31932152       29       0.00244236       0.00065642      -0.00151429
O       -3.20083600       0.77766604       5.09645800       30      -0.00235998      -0.00071468       0.00161519
O        4.82274215       0.68572290       1.82634993       31      -0.00019524       0.00005067      -0.00294082
O        0.96107497       1.08191361       5.20812879       32      -0.00011285       0.00016718      -0.00294082
O        3.20083599      -1.05491769       5.25652932       33       0.00235998       0.00104146       0.00142653
O        2.06153127       0.02794406       3.06245734       34      -0.00019524       0.00252149       0.00151429
O        0.96107497      -1.88799777       6.60430752       35      -0.00011285      -0.00263042       0.00132563
O       -0.66083118       1.67569336       3.22252866       36       0.00244236       0.00098320       0.00132563
O       -0.96107497      -0.80608416       5.04887859       37       0.00011285      -0.00246323      -0.00161519
O       -0.43962512       4.95985957       1.50702841       38      -0.00235998      -0.00104146      -0.00142653
O        3.46089049       4.61860883       4.88880727       39       0.00019524       0.00257216      -0.00142653
