40
Lattice="8.848283730733492 6.934970399089727e-10 6.274466117730413e-15 -2.9494279108983337 8.342241903587839 -1.2011872069635548e-09 -2.9494279099175844 -4.17112095110041 7.224593413822911" Properties=species:S:1:pos:R:3:spacegroup_kinds:I:1:forces:R:3 spacegroup="P 1" unit_cell=conventional occupancy="_JSON {\"0\": {\"In\": 1}, \"1\": {\"In\": 1}, \"2\": {\"In\": 1}, \"3\": {\"In\": 1}, \"4\": {\"In\": 1}, \"5\": {\"In\": 1}, \"6\": {\"In\": 1}, \"7\": {\"In\": 1}, \"8\": {\"In\": 1}, \"9\": {\"In\": 1}, \"10\": {\"In\": 1}, \"11\": {\"In\": 1}, \"12\": {\"In\": 1}, \"13\": {\"In\": 1}, \"14\": {\"In\": 1}, \"15\": {\"In\": 1}, \"16\": {\"O\": 1}, \"17\": {\"O\": 1}, \"18\": {\"O\": 1}, \"19\": {\"O\": 1}, \"20\": {\"O\": 1}, \"21\": {\"O\": 1}, \"22\": {\"O\": 1}, \"23\": {\"O\": 1}, \"24\": {\"O\": 1}, \"25\": {\"O\": 1}, \"26\": {\"O\": 1}, \"27\": {\"O\": 1}, \"28\": {\"O\": 1}, \"29\": {\"O\": 1}, \"30\": {\"O\": 1}, \"31\": {\"O\": 1}, \"32\": {\"O\": 1}, \"33\": {\"O\": 1}, \"34\": {\"O\": 1}, \"35\": {\"O\": 1}, \"36\": {\"O\": 1}, \"37\": {\"O\": 1}, \"38\": {\"O\": 1}, \"39\": {\"O\": 1}}" n_minim_iter=4 energy=-45150.41486856025 stress="-0.01933178266771759 3.312799583487791e-12 1.2960723241712174e-12 3.312799583487791e-12 -0.019331782664356176 2.733928048776204e-12 1.2960723241712174e-12 2.733928048776204e-12 -0.019331782663807532" free_energy=-45150.41486856025 pbc="T T T"
In      -4.22495724       2.98749592       5.66239541        0       0.00113613      -0.00080337       0.00139147
In       7.17438515       1.18362504       1.56219800        1      -0.00113613       0.00080337      -0.00139147
In       1.27552933      -0.90193544       5.17449471        2      -0.00113613       0.00080337      -0.00139147
In      -1.47471396      -2.08556047       3.61229670        3      -0.00000000      -0.00000000       0.00000000
In      -1.27552933       4.03027615       3.36834635        4       0.00113613      -0.00080337      -0.00139147
In       4.62332649      -2.84665111       5.41844506        5       0.00113613       0.00160674      -0.00000000
In      -1.27552933       1.32446984       5.41844506        6       0.00113613       0.00160674       0.00000000
In      -1.67389858       7.01777207       1.80614835        7      -0.00113613      -0.00160674       0.00000000
In       4.22495724       0.14084480       3.85624705        8      -0.00113613       0.00080337       0.00139147
In      -1.47471396       4.17112095      -0.00000000        9      -0.00000000       0.00000000       0.00000000
In       4.22495724       6.39752623       0.24395035       10      -0.00113613       0.00080337       0.00139147
In      -1.27552933      -2.22640527       6.98064306       11       0.00113613      -0.00080337      -0.00139147
In       4.22495724       2.84665112       1.80614835       12      -0.00113613      -0.00160674      -0.00000000
In       1.67389858       5.07305639       2.05009870       13       0.00113613      -0.00080337       0.00139147
In       4.42414186       0.00000000      -0.00000000       14       0.00000000      -0.00000000      -0.00000000
In       1.47471395       2.08556048       3.61229670       15       0.00000000       0.00000000       0.00000000
O        0.87505847       4.17257430       3.93075004       16       0.00513314       0.00305436       0.00771033
O       -2.07436944       3.40340272       5.25795975       17       0.00513314       0.00515016      -0.00650031
O       -0.43075531       2.24119202       0.04637433       18       0.00944634       0.00210027      -0.00121774
O       -0.87505847      -0.76626488       1.96411639       19      -0.00513314       0.00820452       0.00121001
O        3.90021534       4.96416007       1.91774206       20       0.00314457      -0.00890758       0.00242776
O        1.99864048       2.90682717       1.64566305       21      -0.00314457      -0.00655629      -0.00650031
O        1.99864048       6.22845385       0.27207901       22      -0.00314457      -0.00235129       0.00892807
O       -2.25660120       5.91573742       3.65867103       23       0.00116863      -0.00960618      -0.00121774
O        3.38018321       1.92992894       7.17821908       24      -0.00944634      -0.00210027       0.00121774
O        5.20602911      -1.74461646       3.56592238       25      -0.00116863       0.00960618       0.00121774
O        6.32961112       3.24631783       1.69455464       26      -0.00944634      -0.00000446      -0.00242776
O        3.64225462       2.29619383       3.88437571       27       0.00116863       0.00374850       0.00892807
O        0.69282671       4.30143161       6.90614007       28       0.00116863       0.00585769      -0.00771033
O        2.25660120      -0.13031066       0.31845334       29      -0.00116863      -0.00585769       0.00771033
O       -3.38018322       0.92480312       5.53003876       30       0.00944634       0.00000446       0.00242776
O        5.02379735       0.76771823       1.96663365       31      -0.00513314      -0.00515016       0.00650031
O        0.95078743       1.26429379       5.57893036       32       0.00314457       0.00655629       0.00650031
O        3.38018321      -1.00512581       5.57641309       33      -0.00944634       0.00210473       0.00121001
O        2.07436944      -0.00145334       3.29384337       34      -0.00513314      -0.00305436      -0.00771033
O        0.95078743      -2.05733290       6.95251440       35       0.00314457       0.00235129      -0.00892807
O       -0.69282671       1.87492713       3.34021769       36      -0.00116863      -0.00374850      -0.00892807
O       -0.95078743      -0.79303911       5.30685135       37      -0.00314457       0.00890758      -0.00242776
O       -0.43075531       5.17624677       1.64818032       38       0.00944634      -0.00210473      -0.00121001
O        3.82448638       4.93738584       5.26047702       39       0.00513314      -0.00820452      -0.00121001
