40
Lattice="9.482392265134994 7.432009809490319e-10 1.4501172631950875e-14 -3.160797422412359 8.940085163149362 -1.287281422768857e-09 -3.160797421361329 -4.470042580831467 7.742340864141872" Properties=species:S:1:pos:R:3:spacegroup_kinds:I:1:forces:R:3 spacegroup="P 1" unit_cell=conventional occupancy="_JSON {\"0\": {\"In\": 1}, \"1\": {\"In\": 1}, \"2\": {\"In\": 1}, \"3\": {\"In\": 1}, \"4\": {\"In\": 1}, \"5\": {\"In\": 1}, \"6\": {\"In\": 1}, \"7\": {\"In\": 1}, \"8\": {\"In\": 1}, \"9\": {\"In\": 1}, \"10\": {\"In\": 1}, \"11\": {\"In\": 1}, \"12\": {\"In\": 1}, \"13\": {\"In\": 1}, \"14\": {\"In\": 1}, \"15\": {\"In\": 1}, \"16\": {\"O\": 1}, \"17\": {\"O\": 1}, \"18\": {\"O\": 1}, \"19\": {\"O\": 1}, \"20\": {\"O\": 1}, \"21\": {\"O\": 1}, \"22\": {\"O\": 1}, \"23\": {\"O\": 1}, \"24\": {\"O\": 1}, \"25\": {\"O\": 1}, \"26\": {\"O\": 1}, \"27\": {\"O\": 1}, \"28\": {\"O\": 1}, \"29\": {\"O\": 1}, \"30\": {\"O\": 1}, \"31\": {\"O\": 1}, \"32\": {\"O\": 1}, \"33\": {\"O\": 1}, \"34\": {\"O\": 1}, \"35\": {\"O\": 1}, \"36\": {\"O\": 1}, \"37\": {\"O\": 1}, \"38\": {\"O\": 1}, \"39\": {\"O\": 1}}" n_minim_iter=1 energy=-45147.897204184366 stress="0.023935263612907792 -2.5594629189074438e-12 1.445081645298437e-12 -2.5594629189074438e-12 0.02393526361452456 5.963901276362998e-13 1.445081645298437e-12 5.963901276362998e-13 0.02393526361703242" free_energy=-45147.897204184366 pbc="T T T"
In      -4.54830029       3.21613398       6.04300384        0      -0.06387710       0.04516793      -0.07823315
In       7.70909771       1.25390861       1.69933702        1       0.06387710      -0.04516793       0.07823315
In       1.38750287      -0.98111268       5.57050745        2       0.06387710      -0.04516793       0.07823315
In      -1.58039871      -2.23502129       3.87117043        3      -0.00000000      -0.00000000      -0.00000000
In      -1.38750287       4.33364462       3.63492223        4      -0.06387710       0.04516793       0.07823315
In       4.93409198      -3.07973601       5.80675565        5      -0.06387710      -0.09033586      -0.00000000
In      -1.38750287       1.39030657       5.80675564        6      -0.06387710      -0.09033586      -0.00000000
In      -1.77329456       7.54977860       1.93558521        7       0.06387710       0.09033586       0.00000000
In       4.54830029       0.13639796       4.10741863        8       0.06387710      -0.04516793      -0.07823315
In      -1.58039871       4.47004258      -0.00000000        9      -0.00000000       0.00000000      -0.00000000
In       4.54830029       6.84146183       0.23624819       10       0.06387710      -0.04516793      -0.07823315
In      -1.38750287      -2.37141925       7.50609267       11      -0.06387710       0.04516793       0.07823315
In       4.54830029       3.07973602       1.93558521       12       0.06387710       0.09033586      -0.00000000
In       1.77329455       5.45115527       2.17183341       13      -0.06387710       0.04516793      -0.07823315
In       4.74119613       0.00000000      -0.00000000       14       0.00000000      -0.00000000       0.00000000
In       1.58039871       2.23502129       3.87117043       15      -0.00000000      -0.00000000       0.00000000
O        0.94913295       4.48232261       4.18213433       16      -0.01599314       0.04964814      -0.01123713
O       -2.21166448       3.61569456       5.64063888       17      -0.01599314      -0.03455571      -0.03737799
O       -0.47753167       2.38947750       0.02216827       18       0.00889823      -0.05215657      -0.00689241
O       -0.94913295      -0.84206799       2.08043235       19       0.01599314       0.01509243      -0.04861512
O        4.14613101       5.32490944       2.05826407       20      -0.02724839      -0.01907176      -0.04172271
O        2.17546383       3.11496703       1.76946845       21       0.02724839       0.02659705      -0.03737799
O        2.17546382       6.67998499       0.28879562       22       0.02724839      -0.04566881      -0.00434472
O       -2.41199821       6.35879255       3.89333871       23       0.05213976       0.00899619      -0.00689241
O        3.63832909       2.08056509       7.72017258       24      -0.00889823       0.05215657       0.00689241
O        5.57279563      -1.88874996       3.84900215       25      -0.05213976      -0.00899619       0.00689241
O        6.79912651       3.44895833       1.81290635       26      -0.00889823      -0.03204728       0.04172271
O        3.90959663       2.42735525       4.15996605       27       0.05213976      -0.01046709      -0.00434472
O        0.74879921       4.62397996       7.43137696       28       0.05213976       0.00147091       0.01123713
O        2.41199821      -0.15393737       0.31096390       29      -0.05213976      -0.00147091      -0.01123713
O       -3.63832909       1.02108425       5.92943450       30       0.00889823       0.03204728      -0.04172271
O        5.37246189       0.85434802       2.10170198       31       0.01599314       0.03455571       0.03737799
O        0.98533359       1.35507555       5.97287241       32      -0.02724839      -0.02659705       0.03737799
O        3.63832909      -1.05948083       5.95160278       33      -0.00889823      -0.02010928      -0.04861512
O        2.21166447      -0.01228003       3.56020653       34       0.01599314      -0.04964814       0.01123713
O        0.98533359      -2.20994240       7.45354524       35      -0.02724839       0.04566881       0.00434472
O       -0.74879921       2.04268734       3.58237480       36      -0.05213976       0.01046709       0.00434472
O       -0.98533360      -0.85486685       5.68407679       37       0.02724839       0.01907176       0.04172271
O       -0.47753167       5.52952342       1.79073808       38       0.00889823       0.02010928       0.04861512
O        4.10993037       5.31211058       5.66190851       39      -0.01599314      -0.01509243       0.04861512
40
Lattice="9.482392265134994 7.43200980949032e-10 1.4501172631950875e-14 -3.1607974224123594 8.940085163149362 -1.287281422768857e-09 -3.1607974213613295 -4.470042580831467 7.742340864141873" Properties=species:S:1:pos:R:3:spacegroup_kinds:I:1:forces:R:3 spacegroup="P 1" unit_cell=conventional occupancy="_JSON {\"0\": {\"In\": 1}, \"1\": {\"In\": 1}, \"2\": {\"In\": 1}, \"3\": {\"In\": 1}, \"4\": {\"In\": 1}, \"5\": {\"In\": 1}, \"6\": {\"In\": 1}, \"7\": {\"In\": 1}, \"8\": {\"In\": 1}, \"9\": {\"In\": 1}, \"10\": {\"In\": 1}, \"11\": {\"In\": 1}, \"12\": {\"In\": 1}, \"13\": {\"In\": 1}, \"14\": {\"In\": 1}, \"15\": {\"In\": 1}, \"16\": {\"O\": 1}, \"17\": {\"O\": 1}, \"18\": {\"O\": 1}, \"19\": {\"O\": 1}, \"20\": {\"O\": 1}, \"21\": {\"O\": 1}, \"22\": {\"O\": 1}, \"23\": {\"O\": 1}, \"24\": {\"O\": 1}, \"25\": {\"O\": 1}, \"26\": {\"O\": 1}, \"27\": {\"O\": 1}, \"28\": {\"O\": 1}, \"29\": {\"O\": 1}, \"30\": {\"O\": 1}, \"31\": {\"O\": 1}, \"32\": {\"O\": 1}, \"33\": {\"O\": 1}, \"34\": {\"O\": 1}, \"35\": {\"O\": 1}, \"36\": {\"O\": 1}, \"37\": {\"O\": 1}, \"38\": {\"O\": 1}, \"39\": {\"O\": 1}}" n_minim_iter=2 energy=-45147.90757652242 stress="0.022980836539590616 8.602996171647869e-13 -1.3463060695971274e-12 8.602996171647869e-13 0.02298083654008022 -9.231366235411037e-13 -1.3463060695971274e-12 -9.231366235411037e-13 0.022980836538021816" free_energy=-45147.90757652242 pbc="T T T"
In      -4.55286294       3.21936026       6.03741576        0      -0.02445577       0.01729284      -0.02995208
In       7.71366036       1.25068233       1.70492510        1       0.02445577      -0.01729284       0.02995208
In       1.39206552      -0.98433896       5.57609553        2       0.02445577      -0.01729284       0.02995208
In      -1.58039871      -2.23502129       3.87117043        3      -0.00000000      -0.00000000      -0.00000000
In      -1.39206552       4.33687091       3.64051032        4      -0.02445577       0.01729284       0.02995208
In       4.92952933      -3.08618858       5.80675565        5      -0.02445577      -0.03458568       0.00000000
In      -1.39206552       1.38385400       5.80675564        6      -0.02445577      -0.03458568      -0.00000000
In      -1.76873191       7.55623116       1.93558521        7       0.02445577       0.03458568      -0.00000000
In       4.55286294       0.13317168       4.10183054        8       0.02445577      -0.01729284      -0.02995208
In      -1.58039871       4.47004258      -0.00000000        9       0.00000000       0.00000000      -0.00000000
In       4.55286294       6.83823555       0.23066011       10       0.02445577      -0.01729284      -0.02995208
In      -1.39206552      -2.36819297       7.51168075       11      -0.02445577       0.01729284       0.02995208
In       4.55286294       3.08618858       1.93558521       12       0.02445577       0.03458568       0.00000000
In       1.76873190       5.45438155       2.16624533       13      -0.02445577       0.01729284      -0.02995208
In       4.74119613       0.00000000      -0.00000000       14       0.00000000      -0.00000000      -0.00000000
In       1.58039871       2.23502129       3.87117043       15       0.00000000      -0.00000000       0.00000000
O        0.94799058       4.48586891       4.18133168       16      -0.01287194       0.00941693      -0.00707050
O       -2.21280684       3.61322630       5.63796902       17      -0.01287194      -0.01083170      -0.00462005
O       -0.47689608       2.38575203       0.02167596       18      -0.00562450      -0.01595641       0.00425621
O       -0.94799058      -0.84098996       2.07695984       19       0.01287194      -0.00141477      -0.01169055
O        4.14418470       5.32354717       2.05528388       20      -0.00592158       0.00387209      -0.01594676
O        2.17741014       3.11686682       1.76679859       21       0.00592158       0.01574634      -0.00462005
O        2.17741014       6.67672293       0.28848528       22       0.00592158      -0.01187425      -0.01132671
O       -2.40827394       6.35943513       3.89284639       23       0.01316901       0.01062163       0.00425621
O        3.63769350       2.08429056       7.72066490       24       0.00562450       0.01595641      -0.00425621
O        5.56907136      -1.88939255       3.84949447       25      -0.01316901      -0.01062163      -0.00425621
O        6.79849092       3.44666924       1.81588655       26       0.00562450      -0.00429222       0.01594676
O        3.91332090       2.42660760       4.15965572       27       0.01316901      -0.00162483      -0.01132671
O        0.75252348       4.62408502       7.43217961       28       0.01316901      -0.00899680       0.00707050
O        2.40827394      -0.15404243       0.31016125       29      -0.01316901       0.00899680      -0.00707050
O       -3.63769350       1.02337335       5.92645431       30      -0.00562450       0.00429222      -0.01594676
O        5.37360426       0.85681629       2.10437184       31       0.01287194       0.01083170       0.00462005
O        0.98338728       1.35317576       5.97554227       32      -0.00592158      -0.01574634       0.00462005
O        3.63769350      -1.06091721       5.94813027       33       0.00562450      -0.01166419      -0.01169055
O        2.21280684      -0.01582632       3.56100918       34       0.01287194      -0.00941693       0.00707050
O        0.98338728      -2.20668034       7.45385557       35      -0.00592158       0.01187425       0.01132671
O       -0.75252348       2.04343499       3.58268514       36      -0.01316901       0.00162483       0.01132671
O       -0.98338728      -0.85350458       5.68705698       37       0.00592158      -0.00387209       0.01594676
O       -0.47689608       5.53095980       1.79421059       38      -0.00562450       0.01166419       0.01169055
O        4.10878800       5.31103255       5.66538102       39      -0.01287194       0.00141477       0.01169055
40
Lattice="9.482392265134994 7.432009809490321e-10 1.4501172631950875e-14 -3.16079742241236 8.940085163149362 -1.287281422768857e-09 -3.16079742136133 -4.470042580831467 7.742340864141874" Properties=species:S:1:pos:R:3:spacegroup_kinds:I:1:forces:R:3 spacegroup="P 1" unit_cell=conventional occupancy="_JSON {\"0\": {\"In\": 1}, \"1\": {\"In\": 1}, \"2\": {\"In\": 1}, \"3\": {\"In\": 1}, \"4\": {\"In\": 1}, \"5\": {\"In\": 1}, \"6\": {\"In\": 1}, \"7\": {\"In\": 1}, \"8\": {\"In\": 1}, \"9\": {\"In\": 1}, \"10\": {\"In\": 1}, \"11\": {\"In\": 1}, \"12\": {\"In\": 1}, \"13\": {\"In\": 1}, \"14\": {\"In\": 1}, \"15\": {\"In\": 1}, \"16\": {\"O\": 1}, \"17\": {\"O\": 1}, \"18\": {\"O\": 1}, \"19\": {\"O\": 1}, \"20\": {\"O\": 1}, \"21\": {\"O\": 1}, \"22\": {\"O\": 1}, \"23\": {\"O\": 1}, \"24\": {\"O\": 1}, \"25\": {\"O\": 1}, \"26\": {\"O\": 1}, \"27\": {\"O\": 1}, \"28\": {\"O\": 1}, \"29\": {\"O\": 1}, \"30\": {\"O\": 1}, \"31\": {\"O\": 1}, \"32\": {\"O\": 1}, \"33\": {\"O\": 1}, \"34\": {\"O\": 1}, \"35\": {\"O\": 1}, \"36\": {\"O\": 1}, \"37\": {\"O\": 1}, \"38\": {\"O\": 1}, \"39\": {\"O\": 1}}" n_minim_iter=3 energy=-45147.909041775325 stress="0.022468978674149858 1.169005176473829e-13 -1.6463585492225211e-12 1.169005176473829e-13 0.02246897867499046 1.162067102067425e-12 -1.6463585492225211e-12 1.162067102067425e-12 0.02246897867633634" free_energy=-45147.909041775325 pbc="T T T"
In      -4.55535280       3.22112085       6.03436632        0      -0.00234822       0.00166044      -0.00287597
In       7.71615021       1.24892173       1.70797454        1       0.00234822      -0.00166044       0.00287597
In       1.39455537      -0.98609956       5.57914497        2       0.00234822      -0.00166044       0.00287597
In      -1.58039871      -2.23502129       3.87117043        3       0.00000000       0.00000000      -0.00000000
In      -1.39455537       4.33863150       3.64355975        4      -0.00234822       0.00166044       0.00287597
In       4.92703947      -3.08970976       5.80675565        5      -0.00234822      -0.00332089      -0.00000000
In      -1.39455537       1.38033282       5.80675564        6      -0.00234822      -0.00332089      -0.00000000
In      -1.76624205       7.55975235       1.93558521        7       0.00234822       0.00332089      -0.00000000
In       4.55535279       0.13141109       4.09878111        8       0.00234822      -0.00166044      -0.00287597
In      -1.58039871       4.47004258      -0.00000000        9       0.00000000       0.00000000       0.00000000
In       4.55535279       6.83647496       0.22761067       10       0.00234822      -0.00166044      -0.00287597
In      -1.39455537      -2.36643237       7.51473019       11      -0.00234822       0.00166044       0.00287597
In       4.55535279       3.08970977       1.93558521       12       0.00234822       0.00332089      -0.00000000
In       1.76624205       5.45614214       2.16319589       13      -0.00234822       0.00166044      -0.00287597
In       4.74119613       0.00000000      -0.00000000       14      -0.00000000       0.00000000      -0.00000000
In       1.58039871       2.23502129       3.87117043       15       0.00000000      -0.00000000      -0.00000000
O        0.94721993       4.48759486       4.18083327       16      -0.01118465      -0.01096669      -0.00444737
O       -2.21357749       3.61193168       5.63672350       17      -0.01118465       0.00163181       0.01172112
O       -0.47674629       2.38380656       0.02155774       18      -0.01252923       0.00258257       0.01007435
O       -0.94721994      -0.84055862       2.07521591       19       0.01118465      -0.00933488       0.00727375
O        4.14322101       5.32304757       2.05365816       20       0.00526670       0.01515131      -0.00280061
O        2.17837383       3.11802493       1.76555307       21      -0.00526670       0.01000106       0.01172112
O        2.17837383       6.67506522       0.28810509       22      -0.00526670       0.00515026      -0.01452173
O       -2.40638981       6.35994240       3.89272818       23      -0.00661128       0.01095181       0.01007435
O        3.63754371       2.08623602       7.72078311       24       0.01252923      -0.00258257      -0.01007435
O        5.56718723      -1.88989981       3.84961268       25       0.00661128      -0.01095182      -0.01007435
O        6.79834113       3.44559413       1.81751226       26       0.01252923       0.01001593       0.00280061
O        3.91520503       2.42625159       4.15927552       27      -0.00661128       0.00324874      -0.01452173
O        0.75440761       4.62393377       7.43267802       28      -0.00661128      -0.01420055       0.00444737
O        2.40638981      -0.15389118       0.30966284       29       0.00661128       0.01420055      -0.00444737
O       -3.63754371       1.02444846       5.92482860       30      -0.01252923      -0.01001593      -0.00280061
O        5.37437491       0.85811090       2.10561735       31       0.01118465      -0.00163181      -0.01172112
O        0.98242359       1.35201765       5.97678779       32       0.00526670      -0.01000106      -0.01172112
O        3.63754371      -1.06178756       5.94638634       33       0.01252923      -0.00743336       0.00727375
O        2.21357749      -0.01755228       3.56150759       34       0.01118465       0.01096669       0.00444737
O        0.98242359      -2.20502264       7.45423577       35       0.00526670      -0.00515026       0.01452173
O       -0.75440761       2.04379100       3.58306534       36       0.00661128      -0.00324874       0.01452173
O       -0.98242359      -0.85300499       5.68868269       37      -0.00526670      -0.01515131       0.00280061
O       -0.47674629       5.53183015       1.79595451       38      -0.01252923       0.00743336      -0.00727375
O        4.10801735       5.31060120       5.66712495       39      -0.01118465       0.00933488      -0.00727375
40
Lattice="9.482392265135 7.432009809490326e-10 1.4501172631950888e-14 -3.160797422412362 8.940085163149366 -1.2872814227688577e-09 -3.160797421361332 -4.4700425808314685 7.74234086414188" Properties=species:S:1:pos:R:3:spacegroup_kinds:I:1:forces:R:3 spacegroup="P 1" unit_cell=conventional occupancy="_JSON {\"0\": {\"In\": 1}, \"1\": {\"In\": 1}, \"2\": {\"In\": 1}, \"3\": {\"In\": 1}, \"4\": {\"In\": 1}, \"5\": {\"In\": 1}, \"6\": {\"In\": 1}, \"7\": {\"In\": 1}, \"8\": {\"In\": 1}, \"9\": {\"In\": 1}, \"10\": {\"In\": 1}, \"11\": {\"In\": 1}, \"12\": {\"In\": 1}, \"13\": {\"In\": 1}, \"14\": {\"In\": 1}, \"15\": {\"In\": 1}, \"16\": {\"O\": 1}, \"17\": {\"O\": 1}, \"18\": {\"O\": 1}, \"19\": {\"O\": 1}, \"20\": {\"O\": 1}, \"21\": {\"O\": 1}, \"22\": {\"O\": 1}, \"23\": {\"O\": 1}, \"24\": {\"O\": 1}, \"25\": {\"O\": 1}, \"26\": {\"O\": 1}, \"27\": {\"O\": 1}, \"28\": {\"O\": 1}, \"29\": {\"O\": 1}, \"30\": {\"O\": 1}, \"31\": {\"O\": 1}, \"32\": {\"O\": 1}, \"33\": {\"O\": 1}, \"34\": {\"O\": 1}, \"35\": {\"O\": 1}, \"36\": {\"O\": 1}, \"37\": {\"O\": 1}, \"38\": {\"O\": 1}, \"39\": {\"O\": 1}}" n_minim_iter=4 energy=-45147.90966384406 stress="0.022455341401616438 -1.6642709510776433e-13 -7.567738169477151e-13 -1.6642709510776433e-13 0.022455341401543333 -6.613209245524225e-13 -7.567738169477151e-13 -6.613209245524225e-13 0.02245534140032882" free_energy=-45147.90966384406 pbc="T T T"
In      -4.55643303       3.22188469       6.03304332        0       0.00390406      -0.00276059       0.00478147
In       7.71723044       1.24815790       1.70929754        1      -0.00390406       0.00276059      -0.00478147
In       1.39563560      -0.98686340       5.58046797        2      -0.00390406       0.00276059      -0.00478147
In      -1.58039871      -2.23502129       3.87117043        3      -0.00000000      -0.00000000       0.00000000
In      -1.39563560       4.33939534       3.64488276        4       0.00390406      -0.00276059      -0.00478147
In       4.92595924      -3.09123744       5.80675565        5       0.00390406       0.00552117       0.00000000
In      -1.39563560       1.37880514       5.80675564        6       0.00390406       0.00552117      -0.00000000
In      -1.76516182       7.56128002       1.93558521        7      -0.00390406      -0.00552117       0.00000000
In       4.55643302       0.13064725       4.09745810        8      -0.00390406       0.00276059       0.00478147
In      -1.58039871       4.47004258      -0.00000000        9      -0.00000000      -0.00000000       0.00000000
In       4.55643302       6.83571112       0.22628767       10      -0.00390406       0.00276059       0.00478147
In      -1.39563560      -2.36566854       7.51605319       11       0.00390406      -0.00276059      -0.00478147
In       4.55643302       3.09123744       1.93558521       12      -0.00390406      -0.00552117      -0.00000000
In       1.76516182       5.45690598       2.16187288       13       0.00390406      -0.00276059       0.00478147
In       4.74119613       0.00000000      -0.00000000       14      -0.00000000      -0.00000000      -0.00000000
In       1.58039871       2.23502129       3.87117043       15       0.00000000       0.00000000      -0.00000000
O        0.94490590       4.48595826       4.17986395       16      -0.00749916       0.00242837       0.00753870
O       -2.21589153       3.61191053       5.63862551       17      -0.00749916       0.00531452      -0.00587238
O       -0.47908059       2.38379973       0.02343493       18       0.00480034      -0.00338254       0.00919138
O       -0.94490590      -0.84221638       2.07614859       19       0.00749916       0.00774289       0.00166632
O        4.14397241       5.32578913       2.05271366       20       0.00751030      -0.00243624      -0.00752506
O        2.17762243       3.12021368       1.76745507       21      -0.00751030       0.00529877      -0.00587238
O        2.17762243       6.67561803       0.28525858       22      -0.00751030      -0.00773501      -0.00165268
O       -2.40716147       6.36214547       3.89460536       23       0.00478921      -0.00339829       0.00919138
O        3.63987800       2.08624285       7.71890593       24      -0.00480034       0.00338254      -0.00919138
O        5.56795889      -1.89210288       3.84773549       25      -0.00478921       0.00339829      -0.00919138
O        6.80067543       3.44721641       1.81845677       26      -0.00480034       0.00626870       0.00752506
O        3.91443337       2.42677574       4.15642901       27       0.00478921       0.00965911      -0.00165268
O        0.75363595       4.62120654       7.43364734       28       0.00478921      -0.00626082      -0.00753870
O        2.40716147      -0.15116395       0.30869351       29      -0.00478921       0.00626082       0.00753870
O       -3.63987801       1.02282618       5.92388409       30       0.00480034      -0.00626870      -0.00752506
O        5.37668894       0.85813206       2.10371535       31       0.00749916      -0.00531452       0.00587238
O        0.98317498       1.34982891       5.97488578       32       0.00751030      -0.00529877       0.00587238
O        3.63987800      -1.06341667       5.94731902       33      -0.00480034      -0.00965124       0.00166632
O        2.21589152      -0.01591567       3.56247691       34       0.00749916      -0.00242837      -0.00753870
O        0.98317499      -2.20557545       7.45708228       35       0.00751030       0.00773501       0.00165268
O       -0.75363595       2.04326684       3.58591185       36      -0.00478921      -0.00965911       0.00165268
O       -0.98317499      -0.85574654       5.68962720       37      -0.00751030       0.00243624       0.00752506
O       -0.47908059       5.53345926       1.79502183       38       0.00480034       0.00965124      -0.00166632
O        4.10570332       5.31225896       5.66619227       39      -0.00749916      -0.00774289      -0.00166632
40
Lattice="9.482392265135 7.432009809490326e-10 1.450117263195088e-14 -3.160797422412362 8.940085163149366 -1.2872814227688577e-09 -3.160797421361332 -4.4700425808314685 7.74234086414188" Properties=species:S:1:pos:R:3:spacegroup_kinds:I:1:forces:R:3 spacegroup="P 1" unit_cell=conventional occupancy="_JSON {\"0\": {\"In\": 1}, \"1\": {\"In\": 1}, \"2\": {\"In\": 1}, \"3\": {\"In\": 1}, \"4\": {\"In\": 1}, \"5\": {\"In\": 1}, \"6\": {\"In\": 1}, \"7\": {\"In\": 1}, \"8\": {\"In\": 1}, \"9\": {\"In\": 1}, \"10\": {\"In\": 1}, \"11\": {\"In\": 1}, \"12\": {\"In\": 1}, \"13\": {\"In\": 1}, \"14\": {\"In\": 1}, \"15\": {\"In\": 1}, \"16\": {\"O\": 1}, \"17\": {\"O\": 1}, \"18\": {\"O\": 1}, \"19\": {\"O\": 1}, \"20\": {\"O\": 1}, \"21\": {\"O\": 1}, \"22\": {\"O\": 1}, \"23\": {\"O\": 1}, \"24\": {\"O\": 1}, \"25\": {\"O\": 1}, \"26\": {\"O\": 1}, \"27\": {\"O\": 1}, \"28\": {\"O\": 1}, \"29\": {\"O\": 1}, \"30\": {\"O\": 1}, \"31\": {\"O\": 1}, \"32\": {\"O\": 1}, \"33\": {\"O\": 1}, \"34\": {\"O\": 1}, \"35\": {\"O\": 1}, \"36\": {\"O\": 1}, \"37\": {\"O\": 1}, \"38\": {\"O\": 1}, \"39\": {\"O\": 1}}" n_minim_iter=5 energy=-45147.9097737562 stress="0.022578348477468667 -3.1715514855941373e-13 -5.412463240525846e-13 -3.1715514855941373e-13 0.02257834847864356 5.495409273432824e-13 -5.412463240525846e-13 5.495409273432824e-13 0.02257834847913027" free_energy=-45147.9097737562 pbc="T T T"
In      -4.55585337       3.22147481       6.03375325        0      -0.00198106       0.00140082      -0.00242630
In       7.71665078       1.24856778       1.70858761        1       0.00198106      -0.00140082       0.00242630
In       1.39505594      -0.98645351       5.57975804        2       0.00198106      -0.00140082       0.00242630
In      -1.58039871      -2.23502129       3.87117043        3      -0.00000000      -0.00000000      -0.00000000
In      -1.39505594       4.33898545       3.64417282        4      -0.00198106       0.00140082       0.00242630
In       4.92653890      -3.09041768       5.80675565        5      -0.00198106      -0.00280164      -0.00000000
In      -1.39505594       1.37962491       5.80675564        6      -0.00198106      -0.00280164       0.00000000
In      -1.76574148       7.56046026       1.93558521        7       0.00198106       0.00280164       0.00000000
In       4.55585336       0.13105713       4.09816803        8       0.00198106      -0.00140082      -0.00242630
In      -1.58039871       4.47004258      -0.00000000        9      -0.00000000      -0.00000000      -0.00000000
In       4.55585336       6.83612100       0.22699760       10       0.00198106      -0.00140082      -0.00242630
In      -1.39505594      -2.36607842       7.51534326       11      -0.00198106       0.00140082       0.00242630
In       4.55585336       3.09041768       1.93558521       12       0.00198106       0.00280164      -0.00000000
In       1.76574148       5.45649610       2.16258282       13      -0.00198106       0.00140082      -0.00242630
In       4.74119613       0.00000000      -0.00000000       14       0.00000000      -0.00000000       0.00000000
In       1.58039871       2.23502129       3.87117043       15      -0.00000000      -0.00000000      -0.00000000
O        0.94433002       4.48546199       4.18022036       16      -0.00577039       0.00677447       0.00486659
O       -2.21646740       3.61246733       5.63887708       17      -0.00577039       0.00082735      -0.00830016
O       -0.47921547       2.38404471       0.02422660       18       0.00524361      -0.00696072       0.00518918
O       -0.94433002      -0.84215584       2.07675658       19       0.00577039       0.00760183      -0.00343357
O        4.14468932       5.32618567       2.05252997       20       0.00270350      -0.00460585      -0.00862275
O        2.17690552       3.12057102       1.76770664       21      -0.00270350       0.00516459      -0.00830016
O        2.17690552       6.67565723       0.28482333       22      -0.00270350      -0.00977045      -0.00032259
O       -2.40743740       6.36219099       3.89539703       23       0.00831050      -0.00262348       0.00518918
O        3.64001289       2.08599788       7.71811425       24      -0.00524361       0.00696072      -0.00518918
O        5.56823482      -1.89214840       3.84694382       25      -0.00831050       0.00262348      -0.00518918
O        6.80081031       3.44802450       1.81864045       26      -0.00524361       0.00101360       0.00862275
O        3.91415745       2.42743859       4.15599376       27       0.00831050       0.00580570      -0.00032259
O        0.75336002       4.62049817       7.43329093       28       0.00831050      -0.00318222      -0.00486659
O        2.40743739      -0.15045559       0.30904993       29      -0.00831050       0.00318222       0.00486659
O       -3.64001290       1.02201808       5.92370041       30       0.00524361      -0.00101360      -0.00862275
O        5.37726482       0.85757526       2.10346378       31       0.00577039      -0.00082735       0.00830016
O        0.98389190       1.34947156       5.97463421       32       0.00270350      -0.00516459       0.00830016
O        3.64001289      -1.06397979       5.94792701       33      -0.00524361      -0.00797432      -0.00343357
O        2.21646740      -0.01541941       3.56212049       34       0.00577039      -0.00677447      -0.00486659
O        0.98389190      -2.20561464       7.45751753       35       0.00270350       0.00977045       0.00032259
O       -0.75336003       2.04260399       3.58634710       36      -0.00831050      -0.00580570       0.00032259
O       -0.98389190      -0.85614308       5.68981088       37      -0.00270350       0.00460585       0.00862275
O       -0.47921547       5.53402238       1.79441385       38       0.00524361       0.00797432       0.00343357
O        4.10512744       5.31219843       5.66558428       39      -0.00577039      -0.00760183       0.00343357
40