40
Lattice="8.196430032652371 6.424094172152068e-10 1.758032612460286e-14 -2.7321433448231254 7.727668343265287 -1.112705468635644e-09 -2.732143343914635 -3.86383417099022 6.692357098030336" Properties=species:S:1:pos:R:3:spacegroup_kinds:I:1:forces:R:3 spacegroup="P 1" unit_cell=conventional occupancy="_JSON {\"0\": {\"In\": 1}, \"1\": {\"In\": 1}, \"2\": {\"In\": 1}, \"3\": {\"In\": 1}, \"4\": {\"In\": 1}, \"5\": {\"In\": 1}, \"6\": {\"In\": 1}, \"7\": {\"In\": 1}, \"8\": {\"In\": 1}, \"9\": {\"In\": 1}, \"10\": {\"In\": 1}, \"11\": {\"In\": 1}, \"12\": {\"In\": 1}, \"13\": {\"In\": 1}, \"14\": {\"In\": 1}, \"15\": {\"In\": 1}, \"16\": {\"O\": 1}, \"17\": {\"O\": 1}, \"18\": {\"O\": 1}, \"19\": {\"O\": 1}, \"20\": {\"O\": 1}, \"21\": {\"O\": 1}, \"22\": {\"O\": 1}, \"23\": {\"O\": 1}, \"24\": {\"O\": 1}, \"25\": {\"O\": 1}, \"26\": {\"O\": 1}, \"27\": {\"O\": 1}, \"28\": {\"O\": 1}, \"29\": {\"O\": 1}, \"30\": {\"O\": 1}, \"31\": {\"O\": 1}, \"32\": {\"O\": 1}, \"33\": {\"O\": 1}, \"34\": {\"O\": 1}, \"35\": {\"O\": 1}, \"36\": {\"O\": 1}, \"37\": {\"O\": 1}, \"38\": {\"O\": 1}, \"39\": {\"O\": 1}}" n_minim_iter=7 energy=-45144.191968015475 stress="-0.05750494852689274 -3.5855197027834826e-12 -2.5027293463137543e-13 -3.5855197027834826e-12 -0.057504948522751655 -5.841129454995474e-13 -2.5027293463137543e-13 -5.841129454995474e-13 -0.057504948528092244" free_energy=-45144.191968015475 pbc="T T T"
In      -3.94128865       2.78691193       5.21146258        0       0.00141477      -0.00100039       0.00173273
In       6.67343199       1.07692224       1.48089451        1      -0.00141477       0.00100039      -0.00173273
In       1.20914531      -0.85499484       4.82707306        2      -0.00141477       0.00100039      -0.00173273
In      -1.36607167      -1.93191708       3.34617855        3      -0.00000000       0.00000000       0.00000000
In      -1.20914531       3.75287048       3.15398379        4       0.00141477      -0.00100039      -0.00173273
In       4.25514138      -2.67594823       5.01926782        5       0.00141477       0.00200078      -0.00000000
In      -1.20914531       1.18788594       5.01926782        6       0.00141477       0.00200078       0.00000000
In      -1.52299804       6.53978241       1.67308927        7      -0.00141477      -0.00200078      -0.00000000
In       3.94128865       0.11096370       3.53837331        8      -0.00141477       0.00100039       0.00173273
In      -1.36607167       3.86383417      -0.00000000        9       0.00000000       0.00000000      -0.00000000
In       3.94128865       5.90671496       0.19219476       10      -0.00141477       0.00100039       0.00173273
In      -1.20914531      -2.04288078       6.50016233       11       0.00141477      -0.00100039      -0.00173273
In       3.94128865       2.67594824       1.67308927       12      -0.00141477      -0.00200078       0.00000000
In       1.52299804       4.71882902       1.86528403       13       0.00141477      -0.00100039       0.00173273
In       4.09821501       0.00000000      -0.00000000       14       0.00000000       0.00000000       0.00000000
In       1.36607167       1.93191709       3.34617855       15       0.00000000       0.00000000      -0.00000000
O        0.69231401       3.83618429       3.66213854       16       0.00019524      -0.00252149      -0.00151429
O       -2.03982933       3.18532995       4.88523333       17       0.00019524      -0.00005067       0.00294082
O       -0.43499714       2.05054223       0.15838623       18      -0.00235998       0.00175614      -0.00018867
O       -0.69231402      -0.70615411       1.85501477       19      -0.00019524      -0.00257216       0.00142653
O        3.68310099       4.66143261       1.69662854       20      -0.00011285       0.00246323       0.00161519
O        1.78118570       2.79330997       1.53905478       21       0.00011285      -0.00016718       0.00294082
O        1.78118570       5.73195681       0.15757376       22       0.00011285       0.00263042      -0.00132563
O       -2.07826880       5.52235642       3.50456477       23      -0.00244236       0.00163963      -0.00018867
O        3.16714048       1.81329195       6.53397087       24       0.00235998      -0.00175614       0.00018867
O        4.81041214      -1.65852224       3.18779232       25       0.00244236      -0.00163963       0.00018867
O        5.89928383       3.09435470       1.64955000       26       0.00235998       0.00071468      -0.00161519
O        3.38601789       2.20578101       3.50375231       27      -0.00244236      -0.00098320      -0.00132563
O        0.65387455       3.86336510       6.37639710       28      -0.00244236      -0.00065642       0.00151429
O        2.07826879       0.00046908       0.31595999       29       0.00244236       0.00065642      -0.00151429
O       -3.16714048       0.76947948       5.04280709       30      -0.00235998      -0.00071468       0.00161519
O        4.77197267       0.67850422       1.80712376       31      -0.00019524       0.00005067      -0.00294082
O        0.95095764       1.07052420       5.15330231       32      -0.00011285       0.00016718      -0.00294082
O        3.16714048      -1.04381247       5.20119332       33       0.00235998       0.00104146       0.00142653
O        2.03982933       0.02764989       3.03021856       34      -0.00019524       0.00252149       0.00151429
O        0.95095764      -1.86812264       6.53478333       35      -0.00011285      -0.00263042       0.00132563
O       -0.65387455       1.65805317       3.18860478       36       0.00244236       0.00098320       0.00132563
O       -0.95095764      -0.79759844       4.99572855       37       0.00011285      -0.00246323      -0.00161519
O       -0.43499714       4.90764664       1.49116377       38      -0.00235998      -0.00104146      -0.00142653
O        3.42445736       4.56998828       4.83734232       39       0.00019524       0.00257216      -0.00142653
