40
Lattice="9.06958192562822 7.108452465086246e-10 6.519349092229627e-15 -3.023193975879598 8.550883842614596 -1.2312321919360521e-09 -3.0231939748743155 -4.275441920596446 7.405282633334957" Properties=species:S:1:pos:R:3:spacegroup_kinds:I:1:forces:R:3 spacegroup="P 1" unit_cell=conventional occupancy="_JSON {\"0\": {\"In\": 1}, \"1\": {\"In\": 1}, \"2\": {\"In\": 1}, \"3\": {\"In\": 1}, \"4\": {\"In\": 1}, \"5\": {\"In\": 1}, \"6\": {\"In\": 1}, \"7\": {\"In\": 1}, \"8\": {\"In\": 1}, \"9\": {\"In\": 1}, \"10\": {\"In\": 1}, \"11\": {\"In\": 1}, \"12\": {\"In\": 1}, \"13\": {\"In\": 1}, \"14\": {\"In\": 1}, \"15\": {\"In\": 1}, \"16\": {\"O\": 1}, \"17\": {\"O\": 1}, \"18\": {\"O\": 1}, \"19\": {\"O\": 1}, \"20\": {\"O\": 1}, \"21\": {\"O\": 1}, \"22\": {\"O\": 1}, \"23\": {\"O\": 1}, \"24\": {\"O\": 1}, \"25\": {\"O\": 1}, \"26\": {\"O\": 1}, \"27\": {\"O\": 1}, \"28\": {\"O\": 1}, \"29\": {\"O\": 1}, \"30\": {\"O\": 1}, \"31\": {\"O\": 1}, \"32\": {\"O\": 1}, \"33\": {\"O\": 1}, \"34\": {\"O\": 1}, \"35\": {\"O\": 1}, \"36\": {\"O\": 1}, \"37\": {\"O\": 1}, \"38\": {\"O\": 1}, \"39\": {\"O\": 1}}" n_minim_iter=2 energy=-45150.42776504838 stress="0.016172559052221445 4.819473313155879e-13 -2.1620716818757338e-13 4.819473313155879e-13 0.016172559056698167 9.899411410421923e-13 -2.1620716818757338e-13 9.899411410421923e-13 0.016172559057208668" free_energy=-45150.42776504838 pbc="T T T"
In      -4.32852985       3.06073281       5.80657922        0      -0.00377739       0.00267102      -0.00462634
In       7.35172382       1.21470912       1.59870341        1       0.00377739      -0.00267102       0.00462634
In       1.30533587      -0.92301184       5.30134473        2       0.00377739      -0.00267102       0.00462634
In      -1.51159699      -2.13772096       3.70264131        3       0.00000000      -0.00000000      -0.00000000
In      -1.30533587       4.12959329       3.45002407        4      -0.00377739       0.00267102       0.00462634
In       4.74105208      -2.91488417       5.55396197        5      -0.00377739      -0.00534204      -0.00000000
In      -1.30533587       1.36055775       5.55396197        6      -0.00377739      -0.00534204      -0.00000000
In      -1.71785811       7.19032609       1.85132065        7       0.00377739       0.00534204      -0.00000000
In       4.32852984       0.14584864       3.95525856        8       0.00377739      -0.00267102      -0.00462634
In      -1.51159699       4.27544192      -0.00000000        9       0.00000000       0.00000000       0.00000000
In       4.32852984       6.55901152       0.25261724       10       0.00377739      -0.00267102      -0.00462634
In      -1.30533587      -2.28356959       7.15266538       11      -0.00377739       0.00267102       0.00462634
In       4.32852984       2.91488417       1.85132066       12       0.00377739       0.00534204       0.00000000
In       1.71785810       5.19845377       2.10393790       13      -0.00377739       0.00267102      -0.00462634
In       4.53479096       0.00000000      -0.00000000       14      -0.00000000       0.00000000       0.00000000
In       1.51159699       2.13772096       3.70264131       15       0.00000000      -0.00000000      -0.00000000
O        0.89373406       4.27611852       4.02867214       16      -0.00411733      -0.00263074       0.00231371
O       -2.12945991       3.48859413       5.39036061       17      -0.00411733       0.00331910       0.00112143
O       -0.44329796       2.29629758       0.05019618       18      -0.00072345       0.00091926       0.00527807
O       -0.89373407      -0.78617120       2.01375013       19       0.00411733       0.00068836       0.00343514
O        3.99889805       5.09059390       1.96355395       20       0.00450172       0.00235893      -0.00184293
O        2.04748989       2.98253031       1.68771929       21      -0.00450172       0.00277549       0.00112143
O        2.04748989       6.38350551       0.27583465       22      -0.00450172      -0.00041656      -0.00296436
O       -2.31273611       6.06567568       3.75283749       23      -0.00110784       0.00037565       0.00527807
O        3.46649194       1.97914435       7.35508645       24       0.00072345      -0.00091926      -0.00527807
O        5.33593008      -1.79023376       3.65244514       25       0.00110784      -0.00037565      -0.00527807
O        6.48968591       3.32934092       1.73908736       26       0.00072345       0.00503058       0.00184293
O        3.73365184       2.35493573       3.97847597       27      -0.00110784       0.00438312      -0.00296436
O        0.71045787       4.40571436       7.07925180       28      -0.00110784      -0.00475877      -0.00231371
O        2.31273611      -0.13027243       0.32603083       29       0.00110784       0.00475877       0.00231371
O       -3.46649194       0.94610101       5.66619526       30      -0.00072345      -0.00503058      -0.00184293
O        5.15265388       0.78684780       2.01492202       31       0.00411733      -0.00331910      -0.00112143
O        0.97570408       1.29291161       5.71756333       32       0.00450172      -0.00277549      -0.00112143
O        3.46649194      -1.03304333       5.71639144       33       0.00072345      -0.00411131       0.00343514
O        2.12945991      -0.00067659       3.37661048       34       0.00411733       0.00263074      -0.00231371
O        0.97570408      -2.10806359       7.12944798       35       0.00450172       0.00041656       0.00296436
O       -0.71045787       1.92050620       3.42680666       36       0.00110784      -0.00438312       0.00296436
O       -0.97570408      -0.81515198       5.44172868       37      -0.00450172      -0.00235893       0.00184293
O       -0.44329796       5.30848526       1.68889119       38      -0.00072345       0.00411131      -0.00343514
O        3.91692804       5.06161313       5.39153250       39      -0.00411733      -0.00068836      -0.00343514
