40
Lattice="8.694369222494492 6.814344737690865e-10 7.926181471183817e-15 -2.898123074807294 8.197129913593477 -1.1802987182997872e-09 -2.8981230738436055 -4.098564956115289 7.098922744080149" Properties=species:S:1:pos:R:3:spacegroup_kinds:I:1:forces:R:3 spacegroup="P 1" unit_cell=conventional occupancy="_JSON {\"0\": {\"In\": 1}, \"1\": {\"In\": 1}, \"2\": {\"In\": 1}, \"3\": {\"In\": 1}, \"4\": {\"In\": 1}, \"5\": {\"In\": 1}, \"6\": {\"In\": 1}, \"7\": {\"In\": 1}, \"8\": {\"In\": 1}, \"9\": {\"In\": 1}, \"10\": {\"In\": 1}, \"11\": {\"In\": 1}, \"12\": {\"In\": 1}, \"13\": {\"In\": 1}, \"14\": {\"In\": 1}, \"15\": {\"In\": 1}, \"16\": {\"O\": 1}, \"17\": {\"O\": 1}, \"18\": {\"O\": 1}, \"19\": {\"O\": 1}, \"20\": {\"O\": 1}, \"21\": {\"O\": 1}, \"22\": {\"O\": 1}, \"23\": {\"O\": 1}, \"24\": {\"O\": 1}, \"25\": {\"O\": 1}, \"26\": {\"O\": 1}, \"27\": {\"O\": 1}, \"28\": {\"O\": 1}, \"29\": {\"O\": 1}, \"30\": {\"O\": 1}, \"31\": {\"O\": 1}, \"32\": {\"O\": 1}, \"33\": {\"O\": 1}, \"34\": {\"O\": 1}, \"35\": {\"O\": 1}, \"36\": {\"O\": 1}, \"37\": {\"O\": 1}, \"38\": {\"O\": 1}, \"39\": {\"O\": 1}}" n_minim_iter=1 energy=-45149.39016256946 stress="-0.05743103562871777 6.01910136229134e-13 -1.0795468530966632e-13 6.01910136229134e-13 -0.05743103562788849 -4.562237135850084e-13 -1.0795468530966632e-13 -4.562237135850084e-13 -0.057431035626042924" free_energy=-45149.39016256946 pbc="T T T"
In      -4.15288874       2.93653579       5.56215492        0      -0.11585570       0.08192235      -0.14189367
In       7.05101181       1.16202917       1.53676781        1       0.11585570      -0.08192235       0.14189367
In       1.25476567      -0.88725331       5.08622919        2       0.11585570      -0.08192235       0.14189367
In      -1.44906154      -2.04928248       3.54946137        3       0.00000000       0.00000000      -0.00000000
In      -1.25476567       3.96117703       3.31149850        4      -0.11585570       0.08192235       0.14189367
In       4.54148048      -2.79914786       5.32419206        5      -0.11585570      -0.16384470       0.00000000
In      -1.25476567       1.29941709       5.32419206        6      -0.11585570      -0.16384470       0.00000000
In      -1.64335741       6.89771282       1.77473068        7       0.11585570       0.16384470       0.00000000
In       4.15288874       0.13738793       3.78742424        8       0.11585570      -0.08192235      -0.14189367
In      -1.44906154       4.09856496      -0.00000000        9       0.00000000      -0.00000000       0.00000000
In       4.15288874       6.28523536       0.23796287       10       0.11585570      -0.08192235      -0.14189367
In      -1.25476567      -2.18667040       6.86095987       11      -0.11585570       0.08192235       0.14189367
In       4.15288874       2.79914787       1.77473068       12       0.11585570       0.16384470       0.00000000
In       1.64335740       4.98581827       2.01269355       13      -0.11585570       0.08192235      -0.14189367
In       4.34718461       0.00000000      -0.00000000       14      -0.00000000      -0.00000000      -0.00000000
In       1.44906154       2.04928248       3.54946137       15       0.00000000       0.00000000       0.00000000
O        0.86689120       4.10262854       3.86173301       16       0.03065927       0.05953406      -0.03497694
O       -2.03123188       3.34232710       5.16453707       17       0.03065927      -0.06005795      -0.03406954
O       -0.42019298       2.20315057       0.03872596       18       0.00972583      -0.04525577      -0.05970767
O       -0.86689120      -0.75217428       1.92734734       19      -0.03065927      -0.00052389      -0.06904648
O        3.82825350       4.87309768       1.88862138       20      -0.06684294      -0.03394835      -0.00933881
O        1.96799265       2.85023723       1.61507570       21       0.06684294      -0.00888652      -0.03406954
O        1.96799265       6.12142541       0.27354567       22       0.06684294      -0.02506182       0.02473072
O       -2.21721461       5.80962565       3.58818733       23       0.04590949       0.00591566      -0.05970767
O        3.31831605       1.89541439       7.06019678       24      -0.00972583       0.04525577       0.05970767
O        5.11533768      -1.71106069       3.51073541       25      -0.04590949      -0.00591566       0.05970767
O        6.21643912       3.18439543       1.66083999       26      -0.00972583      -0.07433624       0.00933881
O        3.57903154       2.25193104       3.82300705       27       0.04590949      -0.05466619       0.02473072
O        0.68090847       4.23413819       6.78665110       28       0.04590949       0.04875053       0.03497694
O        2.21721460      -0.13557322       0.31227164       29      -0.04590949      -0.04875053      -0.03497694
O       -3.31831605       0.91416953       5.43808275       30       0.00972583       0.07433624      -0.00933881
O        4.92935495       0.75623786       1.93438566       31      -0.03065927       0.06005795       0.03406954
O        0.93013043       1.24832774       5.48384704       32      -0.06684294       0.00888652       0.03406954
O        3.31831605      -0.98124486       5.47680871       33      -0.00972583       0.02908047      -0.06904648
O        2.03123187      -0.00406358       3.23718973       34      -0.03065927      -0.05953406       0.03497694
O        0.93013043      -2.02286045       6.82537706       35      -0.06684294       0.02506182      -0.02473072
O       -0.68090847       1.84663392       3.27591569       36      -0.04590949       0.05466619      -0.02473072
O       -0.93013043      -0.77453272       5.21030136       37       0.06684294       0.03394835       0.00933881
O       -0.42019298       5.07980982       1.62211403       38       0.00972583      -0.02908047       0.06904648
O        3.76501427       4.85073924       5.17157540       39       0.03065927       0.00052389       0.06904648
40
Lattice="8.694369222494492 6.814344737690866e-10 7.926181471183819e-15 -2.898123074807294 8.197129913593479 -1.1802987182997872e-09 -2.8981230738436055 -4.09856495611529 7.0989227440801494" Properties=species:S:1:pos:R:3:spacegroup_kinds:I:1:forces:R:3 spacegroup="P 1" unit_cell=conventional occupancy="_JSON {\"0\": {\"In\": 1}, \"1\": {\"In\": 1}, \"2\": {\"In\": 1}, \"3\": {\"In\": 1}, \"4\": {\"In\": 1}, \"5\": {\"In\": 1}, \"6\": {\"In\": 1}, \"7\": {\"In\": 1}, \"8\": {\"In\": 1}, \"9\": {\"In\": 1}, \"10\": {\"In\": 1}, \"11\": {\"In\": 1}, \"12\": {\"In\": 1}, \"13\": {\"In\": 1}, \"14\": {\"In\": 1}, \"15\": {\"In\": 1}, \"16\": {\"O\": 1}, \"17\": {\"O\": 1}, \"18\": {\"O\": 1}, \"19\": {\"O\": 1}, \"20\": {\"O\": 1}, \"21\": {\"O\": 1}, \"22\": {\"O\": 1}, \"23\": {\"O\": 1}, \"24\": {\"O\": 1}, \"25\": {\"O\": 1}, \"26\": {\"O\": 1}, \"27\": {\"O\": 1}, \"28\": {\"O\": 1}, \"29\": {\"O\": 1}, \"30\": {\"O\": 1}, \"31\": {\"O\": 1}, \"32\": {\"O\": 1}, \"33\": {\"O\": 1}, \"34\": {\"O\": 1}, \"35\": {\"O\": 1}, \"36\": {\"O\": 1}, \"37\": {\"O\": 1}, \"38\": {\"O\": 1}, \"39\": {\"O\": 1}}" n_minim_iter=2 energy=-45149.40042223673 stress="-0.0558723387039578 3.342135544039748e-13 -1.8152229898427677e-12 3.342135544039748e-13 -0.055872338705920795 5.954579657504728e-14 -1.8152229898427677e-12 5.954579657504728e-14 -0.05587233870598548" free_energy=-45149.40042223673 pbc="T T T"
In      -4.15672519       2.93924857       5.55745625        0       0.00807968      -0.00571320       0.00989555
In       7.05484827       1.15931639       1.54146649        1      -0.00807968       0.00571320      -0.00989555
In       1.25860212      -0.88996609       5.09092786        2      -0.00807968       0.00571320      -0.00989555
In      -1.44906154      -2.04928248       3.54946137        3       0.00000000       0.00000000       0.00000000
In      -1.25860212       3.96388981       3.31619717        4       0.00807968      -0.00571320      -0.00989555
In       4.53764403      -2.80457342       5.32419206        5       0.00807968       0.01142639       0.00000000
In      -1.25860212       1.29399153       5.32419206        6       0.00807968       0.01142639      -0.00000000
In      -1.63952096       6.90313838       1.77473068        7      -0.00807968      -0.01142639       0.00000000
In       4.15672519       0.13467515       3.78272556        8      -0.00807968       0.00571320       0.00989555
In      -1.44906154       4.09856496      -0.00000000        9      -0.00000000      -0.00000000       0.00000000
In       4.15672519       6.28252258       0.23326419       10      -0.00807968       0.00571320       0.00989555
In      -1.25860212      -2.18395762       6.86565855       11       0.00807968      -0.00571320      -0.00989555
In       4.15672519       2.80457343       1.77473068       12      -0.00807968      -0.01142639       0.00000000
In       1.63952095       4.98853105       2.00799488       13       0.00807968      -0.00571320       0.00989555
In       4.34718461       0.00000000      -0.00000000       14      -0.00000000       0.00000000      -0.00000000
In       1.44906154       2.04928248       3.54946137       15       0.00000000       0.00000000      -0.00000000
O        0.86790645       4.10459995       3.86057478       16       0.02783321      -0.01086969      -0.03270319
O       -2.03021663       3.34033834       5.16340889       17       0.02783321      -0.02288695       0.02576502
O       -0.41987092       2.20165197       0.03674880       18      -0.02254833       0.01273818      -0.03593950
O       -0.86790645      -0.75219163       1.92506093       19      -0.02783321      -0.03375664      -0.00693817
O        3.82604006       4.87197351       1.88831213       20      -0.03085575       0.01300695       0.02900134
O        1.97020609       2.84994296       1.61394752       21       0.03085575      -0.01861242       0.02576502
O        1.97020609       6.12059552       0.27436461       22       0.03085575       0.03161937       0.00323631
O       -2.21569436       5.80982154       3.58621017       23      -0.01952578       0.01701271      -0.03593950
O        3.31799399       1.89691299       7.06217394       24       0.02254833      -0.01273818       0.03593950
O        5.11381743      -1.71125658       3.51271257       25       0.01952578      -0.01701271       0.03593950
O        6.21611706       3.18193386       1.66114923       26       0.02254833      -0.02475543      -0.02900134
O        3.58055179       2.25012082       3.82382598       27      -0.01952578      -0.03963087       0.00323631
O        0.68242872       4.23575251       6.78780933       28      -0.01952578       0.02261817       0.03270319
O        2.21569435      -0.13718755       0.31111341       29       0.01952578      -0.02261817      -0.03270319
O       -3.31799399       0.91663110       5.43777350       30      -0.02254833       0.02475543       0.02900134
O        4.92833970       0.75822662       1.93551384       31      -0.02783321       0.02288695      -0.02576502
O        0.92791699       1.24862200       5.48497522       32      -0.03085575       0.01861242      -0.02576502
O        3.31799399      -0.98028188       5.47452230       33       0.02254833       0.03749361      -0.00693817
O        2.03021662      -0.00603499       3.23834796       34      -0.02783321       0.01086969       0.03270319
O        0.92791699      -2.02203055       6.82455813       35      -0.03085575      -0.03161937      -0.00323631
O       -0.68242872       1.84844414       3.27509676       36       0.01952578       0.03963087      -0.00323631
O       -0.92791699      -0.77340855       5.21061061       37       0.03085575      -0.01300695      -0.02900134
O       -0.41987092       5.07884685       1.62440044       38      -0.02254833      -0.03749361       0.00693817
O        3.76602952       4.85075659       5.17386181       39       0.02783321       0.03375664       0.00693817
40
Lattice="8.694369222494494 6.814344737690867e-10 7.926181471183815e-15 -2.8981230748072946 8.19712991359348 -1.1802987182997874e-09 -2.898123073843606 -4.098564956115291 7.098922744080153" Properties=species:S:1:pos:R:3:spacegroup_kinds:I:1:forces:R:3 spacegroup="P 1" unit_cell=conventional occupancy="_JSON {\"0\": {\"In\": 1}, \"1\": {\"In\": 1}, \"2\": {\"In\": 1}, \"3\": {\"In\": 1}, \"4\": {\"In\": 1}, \"5\": {\"In\": 1}, \"6\": {\"In\": 1}, \"7\": {\"In\": 1}, \"8\": {\"In\": 1}, \"9\": {\"In\": 1}, \"10\": {\"In\": 1}, \"11\": {\"In\": 1}, \"12\": {\"In\": 1}, \"13\": {\"In\": 1}, \"14\": {\"In\": 1}, \"15\": {\"In\": 1}, \"16\": {\"O\": 1}, \"17\": {\"O\": 1}, \"18\": {\"O\": 1}, \"19\": {\"O\": 1}, \"20\": {\"O\": 1}, \"21\": {\"O\": 1}, \"22\": {\"O\": 1}, \"23\": {\"O\": 1}, \"24\": {\"O\": 1}, \"25\": {\"O\": 1}, \"26\": {\"O\": 1}, \"27\": {\"O\": 1}, \"28\": {\"O\": 1}, \"29\": {\"O\": 1}, \"30\": {\"O\": 1}, \"31\": {\"O\": 1}, \"32\": {\"O\": 1}, \"33\": {\"O\": 1}, \"34\": {\"O\": 1}, \"35\": {\"O\": 1}, \"36\": {\"O\": 1}, \"37\": {\"O\": 1}, \"38\": {\"O\": 1}, \"39\": {\"O\": 1}}" n_minim_iter=3 energy=-45149.40184948564 stress="-0.055567945520599335 2.038742137365926e-12 3.98631068577692e-12 2.038742137365926e-12 -0.05556794552527334 6.98542924889042e-13 3.98631068577692e-12 6.98542924889042e-13 -0.05556794551812946" free_energy=-45149.40184948564 pbc="T T T"
In      -4.15677259       2.93928209       5.55739821        0      -0.00162803       0.00115119      -0.00199392
In       7.05489566       1.15928288       1.54152453        1       0.00162803      -0.00115119       0.00199392
In       1.25864951      -0.88999960       5.09098590        2       0.00162803      -0.00115119       0.00199392
In      -1.44906154      -2.04928248       3.54946137        3      -0.00000000      -0.00000000      -0.00000000
In      -1.25864951       3.96392332       3.31625522        4      -0.00162803       0.00115119       0.00199392
In       4.53759663      -2.80464045       5.32419206        5      -0.00162802      -0.00230238      -0.00000000
In      -1.25864951       1.29392451       5.32419206        6      -0.00162803      -0.00230238       0.00000000
In      -1.63947356       6.90320541       1.77473068        7       0.00162803       0.00230238       0.00000000
In       4.15677258       0.13464164       3.78266752        8       0.00162803      -0.00115119      -0.00199392
In      -1.44906154       4.09856496      -0.00000000        9       0.00000000       0.00000000       0.00000000
In       4.15677258       6.28248907       0.23320615       10       0.00162803      -0.00115119      -0.00199392
In      -1.25864951      -2.18392411       6.86571659       11      -0.00162803       0.00115119       0.00199392
In       4.15677258       2.80464045       1.77473068       12       0.00162803       0.00230238      -0.00000000
In       1.63947356       4.98856456       2.00793683       13      -0.00162803       0.00115119      -0.00199392
In       4.34718461       0.00000000      -0.00000000       14      -0.00000000       0.00000000      -0.00000000
In       1.44906154       2.04928248       3.54946137       15      -0.00000000      -0.00000000      -0.00000000
O        0.86965528       4.10423513       3.85852461       16       0.02676532      -0.00161390       0.02332875
O       -2.02846779       3.33874525       5.16474992       17       0.02676532       0.02101024      -0.01026670
O       -0.42113391       2.20218856       0.03440111       18       0.02720882       0.02069664      -0.00972353
O       -0.86965528      -0.75414953       1.92435179       19      -0.02676532       0.01939634       0.01306205
O        3.82395514       4.87257599       1.88995068       20       0.01088687      -0.02501023       0.02278558
O        1.97229101       2.84882517       1.61528855       21      -0.01088687      -0.03223800      -0.01026670
O        1.97229101       6.12231577       0.27466212       22      -0.01088687       0.00722778       0.03305228
O       -2.21662126       5.81083344       3.58386248       23      -0.01044337      -0.03255160      -0.00972353
O        3.31925698       1.89637640       7.06452163       24      -0.02720882      -0.02069664       0.00972353
O        5.11474433      -1.71226848       3.51506026       25       0.01044337       0.03255160       0.00972353
O        6.21738005       3.18016900       1.65951069       26      -0.02720882       0.00192750      -0.02278558
O        3.57962489       2.24758172       3.82412350       27      -0.01044337       0.00785498       0.03305228
O        0.68150182       4.23727972       6.78985950       28      -0.01044337       0.02469662      -0.02332875
O        2.21662125      -0.13871476       0.30906324       29       0.01044337      -0.02469662       0.02332875
O       -3.31925698       0.91839596       5.43941205       30       0.02720882      -0.00192750       0.02278558
O        4.92659086       0.75981971       1.93417282       31      -0.02676532      -0.02101024       0.01026670
O        0.92583206       1.24973979       5.48363419       32       0.01088687       0.03223800       0.01026670
O        3.31925698      -0.97798043       5.47381316       33      -0.02720882       0.01876914       0.01306205
O        2.02846779      -0.00567017       3.24039813       34      -0.02676532       0.00161390      -0.02332875
O        0.92583206      -2.02375081       6.82426061       35       0.01088687      -0.00722778      -0.03305228
O       -0.68150182       1.85098324       3.27479924       36       0.01044337      -0.00785498      -0.03305228
O       -0.92583207      -0.77401103       5.20897206       37      -0.01088687       0.02501023      -0.02278558
O       -0.42113391       5.07654539       1.62510957       38       0.02720882      -0.01876914      -0.01306205
O        3.76777836       4.85271450       5.17457095       39       0.02676532      -0.01939634      -0.01306205
40
Lattice="8.694369222494496 6.81434473769087e-10 7.92618147118382e-15 -2.898123074807296 8.197129913593482 -1.1802987182997882e-09 -2.8981230738436072 -4.0985649561152915 7.0989227440801566" Properties=species:S:1:pos:R:3:spacegroup_kinds:I:1:forces:R:3 spacegroup="P 1" unit_cell=conventional occupancy="_JSON {\"0\": {\"In\": 1}, \"1\": {\"In\": 1}, \"2\": {\"In\": 1}, \"3\": {\"In\": 1}, \"4\": {\"In\": 1}, \"5\": {\"In\": 1}, \"6\": {\"In\": 1}, \"7\": {\"In\": 1}, \"8\": {\"In\": 1}, \"9\": {\"In\": 1}, \"10\": {\"In\": 1}, \"11\": {\"In\": 1}, \"12\": {\"In\": 1}, \"13\": {\"In\": 1}, \"14\": {\"In\": 1}, \"15\": {\"In\": 1}, \"16\": {\"O\": 1}, \"17\": {\"O\": 1}, \"18\": {\"O\": 1}, \"19\": {\"O\": 1}, \"20\": {\"O\": 1}, \"21\": {\"O\": 1}, \"22\": {\"O\": 1}, \"23\": {\"O\": 1}, \"24\": {\"O\": 1}, \"25\": {\"O\": 1}, \"26\": {\"O\": 1}, \"27\": {\"O\": 1}, \"28\": {\"O\": 1}, \"29\": {\"O\": 1}, \"30\": {\"O\": 1}, \"31\": {\"O\": 1}, \"32\": {\"O\": 1}, \"33\": {\"O\": 1}, \"34\": {\"O\": 1}, \"35\": {\"O\": 1}, \"36\": {\"O\": 1}, \"37\": {\"O\": 1}, \"38\": {\"O\": 1}, \"39\": {\"O\": 1}}" n_minim_iter=4 energy=-45149.4029447811 stress="-0.055430912477238116 -2.775681376824364e-13 8.442000521523298e-13 -2.775681376824364e-13 -0.05543091247436345 -1.418103694580888e-12 8.442000521523298e-13 -1.418103694580888e-12 -0.05543091247596099" free_energy=-45149.4029447811 pbc="T T T"
In      -4.15699871       2.93944198       5.55712127        0       0.00664161      -0.00469632       0.00813427
In       7.05512178       1.15912298       1.54180147        1      -0.00664161       0.00469632      -0.00813427
In       1.25887563      -0.89015949       5.09126284        2      -0.00664161       0.00469632      -0.00813427
In      -1.44906154      -2.04928248       3.54946137        3       0.00000000      -0.00000000      -0.00000000
In      -1.25887563       3.96408322       3.31653216        4       0.00664161      -0.00469632      -0.00813427
In       4.53737051      -2.80496023       5.32419206        5       0.00664161       0.00939265      -0.00000000
In      -1.25887563       1.29360473       5.32419206        6       0.00664161       0.00939265       0.00000000
In      -1.63924744       6.90352519       1.77473068        7      -0.00664161      -0.00939265      -0.00000000
In       4.15699871       0.13448175       3.78239058        8      -0.00664161       0.00469632       0.00813427
In      -1.44906154       4.09856496      -0.00000000        9       0.00000000      -0.00000000       0.00000000
In       4.15699870       6.28232918       0.23292921       10      -0.00664161       0.00469632       0.00813427
In      -1.25887563      -2.18376422       6.86599353       11       0.00664161      -0.00469632      -0.00813427
In       4.15699871       2.80496023       1.77473068       12      -0.00664161      -0.00939265       0.00000000
In       1.63924744       4.98872446       2.00765989       13       0.00664161      -0.00469632       0.00813427
In       4.34718461       0.00000000      -0.00000000       14      -0.00000000       0.00000000       0.00000000
In       1.44906154       2.04928248       3.54946137       15      -0.00000000       0.00000000       0.00000000
O        0.87290387       4.10388253       3.85861414       16       0.00190924       0.00796501      -0.00056686
O       -2.02521921       3.33899909       5.16501052       17       0.00190924      -0.00447342      -0.00661447
O       -0.42014416       2.20403964       0.03189520       18       0.00392832      -0.00590112      -0.00414162
O       -0.87290387      -0.75424830       1.92470192       19      -0.00190924       0.00349159      -0.00718133
O        3.82311160       4.87122797       1.89280671       20      -0.00485399      -0.00588276      -0.00303971
O        1.97313455       2.84567776       1.61554915       21       0.00485400      -0.00030891      -0.00661447
O        1.97313455       6.12411516       0.27725756       22       0.00485400      -0.00557385       0.00357476
O       -2.21803656       5.80928327       3.58135658       23       0.00687307      -0.00173662      -0.00414162
O        3.31826724       1.89452532       7.06702753       24      -0.00392832       0.00590112       0.00414162
O        5.11615963      -1.71071831       3.51756616       25      -0.00687307       0.00173662       0.00414162
O        6.21639031       3.17892436       1.65665465       26      -0.00392832      -0.00653731       0.00303971
O        3.57820959       2.24618662       3.82671893       27       0.00687307      -0.00271844       0.00357476
O        0.68008652       4.24022498       6.78976997       28       0.00687307       0.00445506       0.00056686
O        2.21803655      -0.14166002       0.30915277       29      -0.00687307      -0.00445506      -0.00056686
O       -3.31826724       0.91964060       5.44226808       30       0.00392832       0.00653731      -0.00303971
O        4.92334228       0.75956587       1.93391222       31      -0.00190924       0.00447342       0.00661447
O        0.92498852       1.25288720       5.48337359       32      -0.00485400       0.00030891       0.00661447
O        3.31826724      -0.97488472       5.47416329       33      -0.00392832       0.00063619      -0.00718133
O        2.02521920      -0.00531757       3.24030860       34      -0.00190924      -0.00796501       0.00056686
O        0.92498852      -2.02555020       6.82166518       35      -0.00485400       0.00557385      -0.00357476
O       -0.68008652       1.85237834       3.27220381       36      -0.00687307       0.00271844      -0.00357476
O       -0.92498852      -0.77266301       5.20611603       37       0.00485399       0.00588276       0.00303971
O       -0.42014416       5.07344968       1.62475945       38       0.00392832      -0.00063619       0.00718133
O        3.77102694       4.85281326       5.17422082       39       0.00190924      -0.00349159       0.00718133
40
Lattice="8.694369222494501 6.814344737690873e-10 7.92618147118383e-15 -2.8981230748072973 8.197129913593486 -1.1802987182997888e-09 -2.8981230738436086 -4.098564956115293 7.098922744080161" Properties=species:S:1:pos:R:3:spacegroup_kinds:I:1:forces:R:3 spacegroup="P 1" unit_cell=conventional occupancy="_JSON {\"0\": {\"In\": 1}, \"1\": {\"In\": 1}, \"2\": {\"In\": 1}, \"3\": {\"In\": 1}, \"4\": {\"In\": 1}, \"5\": {\"In\": 1}, \"6\": {\"In\": 1}, \"7\": {\"In\": 1}, \"8\": {\"In\": 1}, \"9\": {\"In\": 1}, \"10\": {\"In\": 1}, \"11\": {\"In\": 1}, \"12\": {\"In\": 1}, \"13\": {\"In\": 1}, \"14\": {\"In\": 1}, \"15\": {\"In\": 1}, \"16\": {\"O\": 1}, \"17\": {\"O\": 1}, \"18\": {\"O\": 1}, \"19\": {\"O\": 1}, \"20\": {\"O\": 1}, \"21\": {\"O\": 1}, \"22\": {\"O\": 1}, \"23\": {\"O\": 1}, \"24\": {\"O\": 1}, \"25\": {\"O\": 1}, \"26\": {\"O\": 1}, \"27\": {\"O\": 1}, \"28\": {\"O\": 1}, \"29\": {\"O\": 1}, \"30\": {\"O\": 1}, \"31\": {\"O\": 1}, \"32\": {\"O\": 1}, \"33\": {\"O\": 1}, \"34\": {\"O\": 1}, \"35\": {\"O\": 1}, \"36\": {\"O\": 1}, \"37\": {\"O\": 1}, \"38\": {\"O\": 1}, \"39\": {\"O\": 1}}" n_minim_iter=5 energy=-45149.40300301302 stress="-0.05553431172216493 1.1922193016468634e-12 1.691436949064218e-12 1.1922193016468634e-12 -0.055534311719777414 -1.4878935207738693e-12 1.691436949064218e-12 -1.4878935207738693e-12 -0.055534311716410205" free_energy=-45149.40300301302 pbc="T T T"
In      -4.15670272       2.93923268       5.55748378        0      -0.00201699       0.00142623      -0.00247030
In       7.05482579       1.15933228       1.54143896        1       0.00201699      -0.00142623       0.00247030
In       1.25857964      -0.88995020       5.09090033        2       0.00201699      -0.00142623       0.00247030
In      -1.44906154      -2.04928248       3.54946137        3       0.00000000      -0.00000000       0.00000000
In      -1.25857965       3.96387392       3.31616965        4      -0.00201699       0.00142623       0.00247030
In       4.53766650      -2.80454164       5.32419206        5      -0.00201699      -0.00285246      -0.00000000
In      -1.25857965       1.29402332       5.32419206        6      -0.00201699      -0.00285246      -0.00000000
In      -1.63954343       6.90310660       1.77473068        7       0.00201699       0.00285246       0.00000000
In       4.15670272       0.13469104       3.78275309        8       0.00201699      -0.00142623      -0.00247030
In      -1.44906154       4.09856496      -0.00000000        9       0.00000000       0.00000000      -0.00000000
In       4.15670272       6.28253848       0.23329172       10       0.00201699      -0.00142623      -0.00247030
In      -1.25857965      -2.18397351       6.86563102       11      -0.00201699       0.00142623       0.00247030
In       4.15670272       2.80454164       1.77473068       12       0.00201699       0.00285246      -0.00000000
In       1.63954343       4.98851516       2.00802240       13      -0.00201699       0.00142623      -0.00247030
In       4.34718461       0.00000000      -0.00000000       14       0.00000000      -0.00000000      -0.00000000
In       1.44906154       2.04928248       3.54946137       15       0.00000000       0.00000000       0.00000000
O        0.87320150       4.10405238       3.85862631       16      -0.00002597       0.00527199      -0.00024275
O       -2.02492157       3.33892470       5.16485734       17      -0.00002597      -0.00284622      -0.00444431
O       -0.41995495       2.20404192       0.03160924       18       0.00227838      -0.00447565      -0.00162207
O       -0.87320150      -0.75415284       1.92456091       19       0.00002597       0.00242577      -0.00468706
O        3.82294225       4.87096740       1.89295167       20      -0.00267479      -0.00336227      -0.00306499
O        1.97330389       2.84542195       1.61539597       21       0.00267479       0.00097322      -0.00444431
O        1.97330389       6.12411041       0.27755569       22       0.00267479      -0.00433549       0.00137932
O       -2.21797563       5.80910412       3.58107061       23       0.00497914      -0.00065620      -0.00162207
O        3.31807802       1.89452304       7.06731350       24      -0.00227838       0.00447565       0.00162207
O        5.11609870      -1.71053916       3.51785212       25      -0.00497914       0.00065620       0.00162207
O        6.21620109       3.17867785       1.65650970       26      -0.00227838      -0.00364257       0.00306499
O        3.57827052       2.24602855       3.82701707       27       0.00497914      -0.00107665       0.00137932
O        0.68014744       4.24056221       6.78975780       28       0.00497914       0.00173285       0.00024275
O        2.21797563      -0.14199725       0.30916494       29      -0.00497914      -0.00173285      -0.00024275
O       -3.31807802       0.91988711       5.44241304       30       0.00227838       0.00364257      -0.00306499
O        4.92304465       0.75964026       1.93406540       31       0.00002597       0.00284622       0.00444431
O        0.92481918       1.25314301       5.48352677       32      -0.00267479      -0.00097322       0.00444431
O        3.31807802      -0.97463593       5.47402228       33      -0.00227838      -0.00083307      -0.00468706
O        2.02492157      -0.00548742       3.24029643       34       0.00002597      -0.00527199       0.00024275
O        0.92481918      -2.02554545       6.82136704       35      -0.00267479       0.00433549      -0.00137932
O       -0.68014745       1.85253641       3.27190567       36      -0.00497914       0.00107665      -0.00137932
O       -0.92481918      -0.77240244       5.20597107       37       0.00267479       0.00336227       0.00306499
O       -0.41995495       5.07320089       1.62490046       38       0.00227838       0.00083307       0.00468706
O        3.77132457       4.85271780       5.17436183       39      -0.00002597      -0.00242577       0.00468706
