40
Lattice="8.772001626847887 6.875209560106566e-10 6.1062615645891104e-15 -2.9240005429308313 8.270322446335575 -1.1908324707943671e-09 -2.9240005419585344 -4.135161222480259 7.162309336809169" Properties=species:S:1:pos:R:3:spacegroup_kinds:I:1:forces:R:3 spacegroup="P 1" unit_cell=conventional occupancy="_JSON {\"0\": {\"In\": 1}, \"1\": {\"In\": 1}, \"2\": {\"In\": 1}, \"3\": {\"In\": 1}, \"4\": {\"In\": 1}, \"5\": {\"In\": 1}, \"6\": {\"In\": 1}, \"7\": {\"In\": 1}, \"8\": {\"In\": 1}, \"9\": {\"In\": 1}, \"10\": {\"In\": 1}, \"11\": {\"In\": 1}, \"12\": {\"In\": 1}, \"13\": {\"In\": 1}, \"14\": {\"In\": 1}, \"15\": {\"In\": 1}, \"16\": {\"O\": 1}, \"17\": {\"O\": 1}, \"18\": {\"O\": 1}, \"19\": {\"O\": 1}, \"20\": {\"O\": 1}, \"21\": {\"O\": 1}, \"22\": {\"O\": 1}, \"23\": {\"O\": 1}, \"24\": {\"O\": 1}, \"25\": {\"O\": 1}, \"26\": {\"O\": 1}, \"27\": {\"O\": 1}, \"28\": {\"O\": 1}, \"29\": {\"O\": 1}, \"30\": {\"O\": 1}, \"31\": {\"O\": 1}, \"32\": {\"O\": 1}, \"33\": {\"O\": 1}, \"34\": {\"O\": 1}, \"35\": {\"O\": 1}, \"36\": {\"O\": 1}, \"37\": {\"O\": 1}, \"38\": {\"O\": 1}, \"39\": {\"O\": 1}}" n_minim_iter=6 energy=-45150.02321559173 stress="-0.03638362042268464 2.9061207260200996e-12 -3.5853254801255373e-12 2.9061207260200996e-12 -0.0363836204181999 3.3518320797750716e-12 -3.5853254801255373e-12 3.3518320797750716e-12 -0.03638362042683832" free_energy=-45150.02321559173 pbc="T T T"
In      -4.18997007       2.96275625       5.61181965        0      -0.00184901       0.00130745      -0.00226456
In       7.11397061       1.17240498       1.55048968        1       0.00184901      -0.00130745       0.00226456
In       1.26596952      -0.89517563       5.13164435        2       0.00184901      -0.00130745       0.00226456
In      -1.46200027      -2.06758061       3.58115467        3      -0.00000000       0.00000000      -0.00000000
In      -1.26596953       3.99654656       3.34106702        4      -0.00184901       0.00130745       0.00226456
In       4.58203156      -2.82414158       5.37173200        5      -0.00184901      -0.00261489      -0.00000000
In      -1.26596953       1.31101965       5.37173200        6      -0.00184901      -0.00261489      -0.00000000
In      -1.65803102       6.95930280       1.79057733        7       0.00184901       0.00261489       0.00000000
In       4.18997007       0.13861467       3.82124232        8       0.00184901      -0.00130745      -0.00226456
In      -1.46200027       4.13516122      -0.00000000        9      -0.00000000      -0.00000000      -0.00000000
In       4.18997007       6.34135651       0.24008765       10       0.00184901      -0.00130745      -0.00226456
In      -1.26596953      -2.20619528       6.92222168       11      -0.00184901       0.00130745       0.00226456
In       4.18997007       2.82414158       1.79057733       12       0.00184901       0.00261489      -0.00000000
In       1.65803101       5.03033686       2.03066498       13      -0.00184901       0.00130745      -0.00226456
In       4.38600081       0.00000000      -0.00000000       14      -0.00000000      -0.00000000      -0.00000000
In       1.46200027       2.06758061       3.58115467       15       0.00000000      -0.00000000      -0.00000000
O        0.87463171       4.13926109       3.89621459       16      -0.00042111      -0.00294252       0.00108210
O       -2.04936884       3.37217089       5.21065145       17      -0.00042111       0.00240838       0.00200725
O       -0.42394490       2.22282260       0.03907174       18      -0.00064396       0.00256596       0.00173431
O       -0.87463171      -0.75889047       1.94455671       19       0.00042111      -0.00053414       0.00308934
O        3.86243614       4.91660978       1.90548496       20       0.00241101       0.00153544       0.00135503
O        1.98556494       2.87568712       1.62949678       21      -0.00241101      -0.00040577       0.00200725
O        1.98556494       6.17608389       0.27598817       22      -0.00241101       0.00194121      -0.00065222
O       -2.23701221       5.86150006       3.62022641       23      -0.00263386      -0.00024819       0.00173431
O        3.34794544       1.91233863       7.12323759       24       0.00064396      -0.00256596      -0.00173431
O        5.16101275      -1.72633883       3.54208292       25       0.00263386       0.00024819      -0.00173431
O        6.27194598       3.21282904       1.67566970       26       0.00064396       0.00278494      -0.00135503
O        3.61098887       2.27203863       3.85714284       27      -0.00263386       0.00162605      -0.00065222
O        0.68698833       4.27194499       6.84724941       28      -0.00263386      -0.00137786      -0.00108210
O        2.23701221      -0.13678376       0.31505992       29       0.00263386       0.00137786       0.00108210
O       -3.34794544       0.92233219       5.48663963       30      -0.00064396      -0.00278494       0.00135503
O        4.97336938       0.76299034       1.95165788       31       0.00042111      -0.00240838      -0.00200725
O        0.93843560       1.25947411       5.53281255       32       0.00241101       0.00040577      -0.00200725
O        3.34794544      -0.99000644       5.52571138       33       0.00064396      -0.00021898       0.00308934
O        2.04936883      -0.00409986       3.26609474       34       0.00042111       0.00294252      -0.00108210
O        0.93843560      -2.04092266       6.88632116       35       0.00241101      -0.00194121       0.00065222
O       -0.68698833       1.86312260       3.30516649       36       0.00263386      -0.00162605       0.00065222
O       -0.93843560      -0.78144856       5.25682437       37      -0.00241101      -0.00153544      -0.00135503
O       -0.42394490       5.12516766       1.63659795       38      -0.00064396       0.00021898      -0.00308934
O        3.79863225       4.89405170       5.21775262       39      -0.00042111       0.00053414      -0.00308934
