40
Lattice="8.848283730733488 6.934970399089724e-10 6.274466117730397e-15 -2.9494279108983323 8.342241903587835 -1.2011872069635542e-09 -2.949427909917583 -4.171120951100408 7.224593413822906" Properties=species:S:1:pos:R:3:spacegroup_kinds:I:1:forces:R:3 spacegroup="P 1" unit_cell=conventional occupancy="_JSON {\"0\": {\"In\": 1}, \"1\": {\"In\": 1}, \"2\": {\"In\": 1}, \"3\": {\"In\": 1}, \"4\": {\"In\": 1}, \"5\": {\"In\": 1}, \"6\": {\"In\": 1}, \"7\": {\"In\": 1}, \"8\": {\"In\": 1}, \"9\": {\"In\": 1}, \"10\": {\"In\": 1}, \"11\": {\"In\": 1}, \"12\": {\"In\": 1}, \"13\": {\"In\": 1}, \"14\": {\"In\": 1}, \"15\": {\"In\": 1}, \"16\": {\"O\": 1}, \"17\": {\"O\": 1}, \"18\": {\"O\": 1}, \"19\": {\"O\": 1}, \"20\": {\"O\": 1}, \"21\": {\"O\": 1}, \"22\": {\"O\": 1}, \"23\": {\"O\": 1}, \"24\": {\"O\": 1}, \"25\": {\"O\": 1}, \"26\": {\"O\": 1}, \"27\": {\"O\": 1}, \"28\": {\"O\": 1}, \"29\": {\"O\": 1}, \"30\": {\"O\": 1}, \"31\": {\"O\": 1}, \"32\": {\"O\": 1}, \"33\": {\"O\": 1}, \"34\": {\"O\": 1}, \"35\": {\"O\": 1}, \"36\": {\"O\": 1}, \"37\": {\"O\": 1}, \"38\": {\"O\": 1}, \"39\": {\"O\": 1}}" n_minim_iter=1 energy=-45150.41204362863 stress="-0.019922863199455788 3.432227688088993e-13 2.1734061750801924e-12 3.432227688088993e-13 -0.01992286320094354 -9.98220778543431e-13 2.1734061750801924e-12 -9.98220778543431e-13 -0.019922863202430093" free_energy=-45150.41204362863 pbc="T T T"
In      -4.22291539       2.98605211       5.66489615        0      -0.05339458       0.03775567      -0.06539473
In       7.17234330       1.18506885       1.55969726        1       0.05339458      -0.03775567       0.06539473
In       1.27348748      -0.90049163       5.17199396        2       0.05339458      -0.03775567       0.06539473
In      -1.47471396      -2.08556047       3.61229670        3      -0.00000000      -0.00000000      -0.00000000
In      -1.27348748       4.02883235       3.36584561        4      -0.05339458       0.03775567       0.06539473
In       4.62536834      -2.84376350       5.41844506        5      -0.05339458      -0.07551133      -0.00000000
In      -1.27348748       1.32735745       5.41844506        6      -0.05339458      -0.07551133       0.00000000
In      -1.67594043       7.01488446       1.80614835        7       0.05339458       0.07551133      -0.00000000
In       4.22291539       0.14228861       3.85874780        8       0.05339458      -0.03775567      -0.06539473
In      -1.47471396       4.17112095      -0.00000000        9       0.00000000       0.00000000      -0.00000000
In       4.22291539       6.39897004       0.24645109       10       0.05339458      -0.03775567      -0.06539473
In      -1.27348748      -2.22784908       6.97814232       11      -0.05339458       0.03775567       0.06539473
In       4.22291539       2.84376351       1.80614835       12       0.05339458       0.07551133      -0.00000000
In       1.67594043       5.07161259       2.05259944       13      -0.05339458       0.03775567      -0.06539473
In       4.42414186       0.00000000      -0.00000000       14       0.00000000       0.00000000      -0.00000000
In       1.47471395       2.08556048       3.61229670       15       0.00000000       0.00000000      -0.00000000
O        0.87237298       4.17237633       3.93190645       16       0.02188149       0.01276517      -0.00766340
O       -2.07705493       3.40450318       5.25755300       17       0.02188149      -0.01301929      -0.00722326
O       -0.43079959       2.24042487       0.04920236       18       0.00705424      -0.00253484      -0.02538285
O       -0.87237299      -0.76536239       1.96486603       19      -0.02188149      -0.00025412      -0.01488666
O        3.90214802       4.96489035       1.91566367       20      -0.01956853      -0.01440067       0.01049619
O        1.99670780       2.90899225       1.64525629       21       0.01956853      -0.01629030      -0.00722326
O        1.99670780       6.22701905       0.27040737       22       0.01956853       0.00188963       0.01771944
O       -2.25589269       5.91603489       3.66149907       23       0.00474129      -0.00580586      -0.02538285
O        3.38022750       1.93069609       7.17539104       24      -0.00705424       0.00253484       0.02538285
O        5.20532060      -1.74491393       3.56309434       25      -0.00474129       0.00580586       0.02538285
O        6.32965541       3.24838341       1.69663304       26      -0.00705424      -0.02324961      -0.01049619
O        3.64296313       2.29849425       3.88270408       27       0.00474129      -0.01907926       0.01771944
O        0.69353522       4.29883373       6.90498367       28       0.00474129       0.02488512       0.00766340
O        2.25589269      -0.12771277       0.31960974       29      -0.00474129      -0.02488512      -0.00766340
O       -3.38022750       0.92273754       5.52796037       30       0.00705424       0.02324961       0.01049619
O        5.02648283       0.76661777       1.96704041       31      -0.02188149       0.01301929       0.00722326
O        0.95272011       1.26212871       5.57933712       32      -0.01956853       0.01629030       0.00722326
O        3.38022750      -1.00795854       5.57716274       33      -0.00705424       0.02071477      -0.01488666
O        2.07705492      -0.00125538       3.29268696       34      -0.02188149      -0.01276517       0.00766340
O        0.95272011      -2.05589810       6.95418604       35      -0.01956853      -0.00188963      -0.01771944
O       -0.69353523       1.87262671       3.34188933       36      -0.00474129       0.01907926      -0.01771944
O       -0.95272011      -0.79376939       5.30892974       37       0.01956853       0.01440067      -0.01049619
O       -0.43079959       5.17907949       1.64743067       38       0.00705424      -0.02071477       0.01488666
O        3.82180089       4.93648335       5.25972738       39       0.02188149       0.00025412       0.01488666
40
Lattice="8.84828373073349 6.934970399089725e-10 6.2744661177304025e-15 -2.949427910898333 8.342241903587837 -1.2011872069635544e-09 -2.9494279099175835 -4.171120951100409 7.224593413822909" Properties=species:S:1:pos:R:3:spacegroup_kinds:I:1:forces:R:3 spacegroup="P 1" unit_cell=conventional occupancy="_JSON {\"0\": {\"In\": 1}, \"1\": {\"In\": 1}, \"2\": {\"In\": 1}, \"3\": {\"In\": 1}, \"4\": {\"In\": 1}, \"5\": {\"In\": 1}, \"6\": {\"In\": 1}, \"7\": {\"In\": 1}, \"8\": {\"In\": 1}, \"9\": {\"In\": 1}, \"10\": {\"In\": 1}, \"11\": {\"In\": 1}, \"12\": {\"In\": 1}, \"13\": {\"In\": 1}, \"14\": {\"In\": 1}, \"15\": {\"In\": 1}, \"16\": {\"O\": 1}, \"17\": {\"O\": 1}, \"18\": {\"O\": 1}, \"19\": {\"O\": 1}, \"20\": {\"O\": 1}, \"21\": {\"O\": 1}, \"22\": {\"O\": 1}, \"23\": {\"O\": 1}, \"24\": {\"O\": 1}, \"25\": {\"O\": 1}, \"26\": {\"O\": 1}, \"27\": {\"O\": 1}, \"28\": {\"O\": 1}, \"29\": {\"O\": 1}, \"30\": {\"O\": 1}, \"31\": {\"O\": 1}, \"32\": {\"O\": 1}, \"33\": {\"O\": 1}, \"34\": {\"O\": 1}, \"35\": {\"O\": 1}, \"36\": {\"O\": 1}, \"37\": {\"O\": 1}, \"38\": {\"O\": 1}, \"39\": {\"O\": 1}}" n_minim_iter=2 energy=-45150.414385755015 stress="-0.019425627464889572 3.615522772582559e-12 1.0692018953635164e-13 3.615522772582559e-12 -0.019425627464726435 -7.761482427214893e-13 1.0692018953635164e-13 -7.761482427214893e-13 -0.01942562746264723" free_energy=-45150.414385755015 pbc="T T T"
In      -4.22500936       2.98753277       5.66233157        0       0.00445415      -0.00314956       0.00545520
In       7.17443727       1.18358819       1.56226183        1      -0.00445415       0.00314956      -0.00545520
In       1.27558145      -0.90197229       5.17455854        2      -0.00445415       0.00314956      -0.00545520
In      -1.47471396      -2.08556047       3.61229670        3       0.00000000       0.00000000      -0.00000000
In      -1.27558145       4.03031301       3.36841019        4       0.00445415      -0.00314956      -0.00545520
In       4.62327437      -2.84672482       5.41844506        5       0.00445415       0.00629912       0.00000000
In      -1.27558145       1.32439613       5.41844506        6       0.00445415       0.00629912       0.00000000
In      -1.67384647       7.01784577       1.80614835        7      -0.00445415      -0.00629912      -0.00000000
In       4.22500936       0.14080795       3.85618322        8      -0.00445415       0.00314956       0.00545520
In      -1.47471396       4.17112095      -0.00000000        9       0.00000000      -0.00000000      -0.00000000
In       4.22500936       6.39748938       0.24388651       10      -0.00445415       0.00314956       0.00545520
In      -1.27558145      -2.22636842       6.98070689       11       0.00445415      -0.00314956      -0.00545520
In       4.22500936       2.84672482       1.80614835       12      -0.00445415      -0.00629912      -0.00000000
In       1.67384646       5.07309325       2.05003487       13       0.00445415      -0.00314956       0.00545520
In       4.42414186       0.00000000      -0.00000000       14       0.00000000      -0.00000000       0.00000000
In       1.47471395       2.08556048       3.61229670       15      -0.00000000      -0.00000000       0.00000000
O        0.87323111       4.17287694       3.93160591       16       0.01556816      -0.00448352      -0.00954379
O       -2.07619680       3.40399261       5.25726972       17       0.01556816      -0.00602340       0.00865474
O       -0.43052295       2.24032546       0.04820693       18      -0.00471663       0.00832012      -0.01618896
O       -0.87323111      -0.76537236       1.96428222       19      -0.01556816      -0.01050692      -0.00088905
O        3.90138060       4.96432560       1.91607529       20      -0.01086830       0.00116022       0.01529991
O        1.99747521       2.90835339       1.64497302       21       0.01086830      -0.01267000       0.00865474
O        1.99747521       6.22709316       0.27110227       22       0.01086830       0.01383022       0.00664518
O       -2.25570675       5.91580720       3.66050363       23      -0.00941649       0.00167351      -0.01618896
O        3.37995085       1.93079549       7.17638648       24       0.00471663      -0.00832012       0.01618896
O        5.20513466      -1.74468624       3.56408977       25       0.00941649      -0.00167351       0.01618896
O        6.32937876       3.24747164       1.69622141       26       0.00471663      -0.00985999      -0.01529991
O        3.64314907       2.29774602       3.88339898       27      -0.00941649      -0.01485681       0.00664518
O        0.69372116       4.29980964       6.90528420       28      -0.00941649       0.01318330       0.00954379
O        2.25570675      -0.12868869       0.31930921       29       0.00941649      -0.01318330      -0.00954379
O       -3.37995086       0.92364932       5.52837200       30      -0.00471663       0.00985999       0.01529991
O        5.02562471       0.76712835       1.96732368       31      -0.01556816       0.00602340      -0.00865474
O        0.95195269       1.26276756       5.57962039       32      -0.01086830       0.01267000      -0.00865474
O        3.37995085      -1.00714617       5.57657893       33       0.00471663       0.01818011      -0.00088905
O        2.07619680      -0.00175599       3.29298750       34      -0.01556816       0.00448352       0.00954379
O        0.95195270      -2.05597220       6.95349113       35      -0.01086830      -0.01383022      -0.00664518
O       -0.69372116       1.87337494       3.34119443       36       0.00941649       0.01485681      -0.00664518
O       -0.95195270      -0.79320464       5.30851811       37       0.01086830      -0.00116022      -0.01529991
O       -0.43052295       5.17826713       1.64801448       38      -0.00471663      -0.01818011       0.00088905
O        3.82265902       4.93649331       5.26031118       39       0.01556816       0.01050692       0.00088905
40
Lattice="8.848283730733492 6.934970399089727e-10 6.27446611773041e-15 -2.9494279108983337 8.342241903587839 -1.2011872069635548e-09 -2.9494279099175844 -4.17112095110041 7.224593413822911" Properties=species:S:1:pos:R:3:spacegroup_kinds:I:1:forces:R:3 spacegroup="P 1" unit_cell=conventional occupancy="_JSON {\"0\": {\"In\": 1}, \"1\": {\"In\": 1}, \"2\": {\"In\": 1}, \"3\": {\"In\": 1}, \"4\": {\"In\": 1}, \"5\": {\"In\": 1}, \"6\": {\"In\": 1}, \"7\": {\"In\": 1}, \"8\": {\"In\": 1}, \"9\": {\"In\": 1}, \"10\": {\"In\": 1}, \"11\": {\"In\": 1}, \"12\": {\"In\": 1}, \"13\": {\"In\": 1}, \"14\": {\"In\": 1}, \"15\": {\"In\": 1}, \"16\": {\"O\": 1}, \"17\": {\"O\": 1}, \"18\": {\"O\": 1}, \"19\": {\"O\": 1}, \"20\": {\"O\": 1}, \"21\": {\"O\": 1}, \"22\": {\"O\": 1}, \"23\": {\"O\": 1}, \"24\": {\"O\": 1}, \"25\": {\"O\": 1}, \"26\": {\"O\": 1}, \"27\": {\"O\": 1}, \"28\": {\"O\": 1}, \"29\": {\"O\": 1}, \"30\": {\"O\": 1}, \"31\": {\"O\": 1}, \"32\": {\"O\": 1}, \"33\": {\"O\": 1}, \"34\": {\"O\": 1}, \"35\": {\"O\": 1}, \"36\": {\"O\": 1}, \"37\": {\"O\": 1}, \"38\": {\"O\": 1}, \"39\": {\"O\": 1}}" n_minim_iter=3 energy=-45150.414790507115 stress="-0.019356172442736175 1.753543904788651e-13 1.6311797295123599e-12 1.753543904788651e-13 -0.019356172446004134 -8.49005807035887e-13 1.6311797295123599e-12 -8.49005807035887e-13 -0.019356172444992294" free_energy=-45150.414790507115 pbc="T T T"
In      -4.22498469       2.98751533       5.66236179        0       0.00206198      -0.00145804       0.00252540
In       7.17441260       1.18360563       1.56223162        1      -0.00206198       0.00145804      -0.00252540
In       1.27555678      -0.90195485       5.17452833        2      -0.00206198       0.00145804      -0.00252540
In      -1.47471396      -2.08556047       3.61229670        3       0.00000000      -0.00000000      -0.00000000
In      -1.27555678       4.03029556       3.36837997        4       0.00206198      -0.00145804      -0.00252540
In       4.62329904      -2.84668993       5.41844506        5       0.00206198       0.00291608       0.00000000
In      -1.27555678       1.32443102       5.41844506        6       0.00206198       0.00291608      -0.00000000
In      -1.67387113       7.01781089       1.80614835        7      -0.00206198      -0.00291608      -0.00000000
In       4.22498469       0.14082539       3.85621344        8      -0.00206198       0.00145804       0.00252540
In      -1.47471396       4.17112095      -0.00000000        9       0.00000000      -0.00000000       0.00000000
In       4.22498469       6.39750682       0.24391673       10      -0.00206198       0.00145804       0.00252540
In      -1.27555678      -2.22638586       6.98067668       11       0.00206198      -0.00145804      -0.00252540
In       4.22498469       2.84668994       1.80614835       12      -0.00206198      -0.00291608       0.00000000
In       1.67387113       5.07307580       2.05006508       13       0.00206198      -0.00145804       0.00252540
In       4.42414186       0.00000000      -0.00000000       14       0.00000000      -0.00000000      -0.00000000
In       1.47471395       2.08556048       3.61229670       15      -0.00000000      -0.00000000       0.00000000
O        0.87446334       4.17262686       3.93088212       16       0.00907682       0.00148914       0.00625405
O       -2.07496457       3.40349082       5.25784820       17       0.00907682       0.00467159      -0.00441666
O       -0.43082106       2.24090580       0.04691110       18       0.00883401       0.00484329      -0.00471405
O       -0.87446335      -0.76612422       1.96413690       19      -0.00907682       0.00616074       0.00183739
O        3.90049677       4.96432932       1.91722579       20       0.00137881      -0.00888240       0.00655144
O        1.99835905       2.90735889       1.64555149       21      -0.00137881      -0.01011491      -0.00441666
O        1.99835905       6.22809138       0.27167430       22      -0.00137881       0.00123251       0.01096810
O       -2.25635327       5.91589482       3.65920781       23      -0.00162163      -0.00994321      -0.00471405
O        3.38024897       1.93021515       7.17768230       24      -0.00883401      -0.00484329       0.00471405
O        5.20578118      -1.74477387       3.56538560       25       0.00162163       0.00994321       0.00471405
O        6.32967688       3.24663959       1.69507091       26      -0.00883401      -0.00166084      -0.00655144
O        3.64250255       2.29657999       3.88397101       27      -0.00162163       0.00088912       0.01096810
O        0.69307464       4.30088805       6.90600800       28      -0.00162163       0.00905409      -0.00625405
O        2.25635327      -0.12976709       0.31858541       29       0.00162163      -0.00905409       0.00625405
O       -3.38024897       0.92448137       5.52952250       30       0.00883401       0.00166084       0.00655144
O        5.02439247       0.76763013       1.96674521       31      -0.00907682      -0.00467159       0.00441666
O        0.95106886       1.26376207       5.57904192       32       0.00137881       0.01011491       0.00441666
O        3.38024897      -1.00573378       5.57643361       33      -0.00883401       0.00650413       0.00183739
O        2.07496456      -0.00150591       3.29371129       34      -0.00907682      -0.00148914      -0.00625405
O        0.95106886      -2.05697042       6.95291911       35       0.00137881      -0.00123251      -0.01096810
O       -0.69307464       1.87454096       3.34062240       36       0.00162163      -0.00088912      -0.01096810
O       -0.95106886      -0.79320836       5.30736761       37      -0.00137881       0.00888240      -0.00655144
O       -0.43082106       5.17685474       1.64815980       38       0.00883401      -0.00650413      -0.00183739
O        3.82389125       4.93724518       5.26045651       39       0.00907682      -0.00616074      -0.00183739
40
Lattice="8.848283730733492 6.934970399089727e-10 6.274466117730413e-15 -2.9494279108983337 8.342241903587839 -1.2011872069635548e-09 -2.9494279099175844 -4.17112095110041 7.224593413822911" Properties=species:S:1:pos:R:3:spacegroup_kinds:I:1:forces:R:3 spacegroup="P 1" unit_cell=conventional occupancy="_JSON {\"0\": {\"In\": 1}, \"1\": {\"In\": 1}, \"2\": {\"In\": 1}, \"3\": {\"In\": 1}, \"4\": {\"In\": 1}, \"5\": {\"In\": 1}, \"6\": {\"In\": 1}, \"7\": {\"In\": 1}, \"8\": {\"In\": 1}, \"9\": {\"In\": 1}, \"10\": {\"In\": 1}, \"11\": {\"In\": 1}, \"12\": {\"In\": 1}, \"13\": {\"In\": 1}, \"14\": {\"In\": 1}, \"15\": {\"In\": 1}, \"16\": {\"O\": 1}, \"17\": {\"O\": 1}, \"18\": {\"O\": 1}, \"19\": {\"O\": 1}, \"20\": {\"O\": 1}, \"21\": {\"O\": 1}, \"22\": {\"O\": 1}, \"23\": {\"O\": 1}, \"24\": {\"O\": 1}, \"25\": {\"O\": 1}, \"26\": {\"O\": 1}, \"27\": {\"O\": 1}, \"28\": {\"O\": 1}, \"29\": {\"O\": 1}, \"30\": {\"O\": 1}, \"31\": {\"O\": 1}, \"32\": {\"O\": 1}, \"33\": {\"O\": 1}, \"34\": {\"O\": 1}, \"35\": {\"O\": 1}, \"36\": {\"O\": 1}, \"37\": {\"O\": 1}, \"38\": {\"O\": 1}, \"39\": {\"O\": 1}}" n_minim_iter=4 energy=-45150.41486856025 stress="-0.01933178266771759 3.312799583487791e-12 1.2960723241712174e-12 3.312799583487791e-12 -0.019331782664356176 2.733928048776204e-12 1.2960723241712174e-12 2.733928048776204e-12 -0.019331782663807532" free_energy=-45150.41486856025 pbc="T T T"
In      -4.22495724       2.98749592       5.66239541        0       0.00113613      -0.00080337       0.00139147
In       7.17438515       1.18362504       1.56219800        1      -0.00113613       0.00080337      -0.00139147
In       1.27552933      -0.90193544       5.17449471        2      -0.00113613       0.00080337      -0.00139147
In      -1.47471396      -2.08556047       3.61229670        3      -0.00000000      -0.00000000       0.00000000
In      -1.27552933       4.03027615       3.36834635        4       0.00113613      -0.00080337      -0.00139147
In       4.62332649      -2.84665111       5.41844506        5       0.00113613       0.00160674      -0.00000000
In      -1.27552933       1.32446984       5.41844506        6       0.00113613       0.00160674       0.00000000
In      -1.67389858       7.01777207       1.80614835        7      -0.00113613      -0.00160674       0.00000000
In       4.22495724       0.14084480       3.85624705        8      -0.00113613       0.00080337       0.00139147
In      -1.47471396       4.17112095      -0.00000000        9      -0.00000000       0.00000000       0.00000000
In       4.22495724       6.39752623       0.24395035       10      -0.00113613       0.00080337       0.00139147
In      -1.27552933      -2.22640527       6.98064306       11       0.00113613      -0.00080337      -0.00139147
In       4.22495724       2.84665112       1.80614835       12      -0.00113613      -0.00160674      -0.00000000
In       1.67389858       5.07305639       2.05009870       13       0.00113613      -0.00080337       0.00139147
In       4.42414186       0.00000000      -0.00000000       14       0.00000000      -0.00000000      -0.00000000
In       1.47471395       2.08556048       3.61229670       15       0.00000000       0.00000000       0.00000000
O        0.87505847       4.17257430       3.93075004       16       0.00513314       0.00305436       0.00771033
O       -2.07436944       3.40340272       5.25795975       17       0.00513314       0.00515016      -0.00650031
O       -0.43075531       2.24119202       0.04637433       18       0.00944634       0.00210027      -0.00121774
O       -0.87505847      -0.76626488       1.96411639       19      -0.00513314       0.00820452       0.00121001
O        3.90021534       4.96416007       1.91774206       20       0.00314457      -0.00890758       0.00242776
O        1.99864048       2.90682717       1.64566305       21      -0.00314457      -0.00655629      -0.00650031
O        1.99864048       6.22845385       0.27207901       22      -0.00314457      -0.00235129       0.00892807
O       -2.25660120       5.91573742       3.65867103       23       0.00116863      -0.00960618      -0.00121774
O        3.38018321       1.92992894       7.17821908       24      -0.00944634      -0.00210027       0.00121774
O        5.20602911      -1.74461646       3.56592238       25      -0.00116863       0.00960618       0.00121774
O        6.32961112       3.24631783       1.69455464       26      -0.00944634      -0.00000446      -0.00242776
O        3.64225462       2.29619383       3.88437571       27       0.00116863       0.00374850       0.00892807
O        0.69282671       4.30143161       6.90614007       28       0.00116863       0.00585769      -0.00771033
O        2.25660120      -0.13031066       0.31845334       29      -0.00116863      -0.00585769       0.00771033
O       -3.38018322       0.92480312       5.53003876       30       0.00944634       0.00000446       0.00242776
O        5.02379735       0.76771823       1.96663365       31      -0.00513314      -0.00515016       0.00650031
O        0.95078743       1.26429379       5.57893036       32       0.00314457       0.00655629       0.00650031
O        3.38018321      -1.00512581       5.57641309       33      -0.00944634       0.00210473       0.00121001
O        2.07436944      -0.00145334       3.29384337       34      -0.00513314      -0.00305436      -0.00771033
O        0.95078743      -2.05733290       6.95251440       35       0.00314457       0.00235129      -0.00892807
O       -0.69282671       1.87492713       3.34021769       36      -0.00116863      -0.00374850      -0.00892807
O       -0.95078743      -0.79303911       5.30685135       37      -0.00314457       0.00890758      -0.00242776
O       -0.43075531       5.17624677       1.64818032       38       0.00944634      -0.00210473      -0.00121001
O        3.82448638       4.93738584       5.26047702       39       0.00513314      -0.00820452      -0.00121001
