40
Lattice="8.107331345166997 6.354268114662702e-10 1.617796973918504e-14 -2.702443782321419 7.643665295113311 -1.1006111435782126e-09 -2.7024437814228026 -3.821832646921217 6.619608324327337" Properties=species:S:1:pos:R:3:spacegroup_kinds:I:1:forces:R:3 spacegroup="P 1" unit_cell=conventional occupancy="_JSON {\"0\": {\"In\": 1}, \"1\": {\"In\": 1}, \"2\": {\"In\": 1}, \"3\": {\"In\": 1}, \"4\": {\"In\": 1}, \"5\": {\"In\": 1}, \"6\": {\"In\": 1}, \"7\": {\"In\": 1}, \"8\": {\"In\": 1}, \"9\": {\"In\": 1}, \"10\": {\"In\": 1}, \"11\": {\"In\": 1}, \"12\": {\"In\": 1}, \"13\": {\"In\": 1}, \"14\": {\"In\": 1}, \"15\": {\"In\": 1}, \"16\": {\"O\": 1}, \"17\": {\"O\": 1}, \"18\": {\"O\": 1}, \"19\": {\"O\": 1}, \"20\": {\"O\": 1}, \"21\": {\"O\": 1}, \"22\": {\"O\": 1}, \"23\": {\"O\": 1}, \"24\": {\"O\": 1}, \"25\": {\"O\": 1}, \"26\": {\"O\": 1}, \"27\": {\"O\": 1}, \"28\": {\"O\": 1}, \"29\": {\"O\": 1}, \"30\": {\"O\": 1}, \"31\": {\"O\": 1}, \"32\": {\"O\": 1}, \"33\": {\"O\": 1}, \"34\": {\"O\": 1}, \"35\": {\"O\": 1}, \"36\": {\"O\": 1}, \"37\": {\"O\": 1}, \"38\": {\"O\": 1}, \"39\": {\"O\": 1}}" n_minim_iter=7 energy=-45143.862823442556 stress="0.03000043160769005 -1.5226248034004916e-12 7.427538646546994e-13 -1.5226248034004916e-12 0.030000431614140174 2.7892160480545716e-12 7.427538646546994e-13 2.7892160480545716e-12 0.030000431612091802" free_energy=-45143.862823442556 pbc="T T T"
In      -3.93320058       2.78119280       5.11224525        0       0.00012062      -0.00008529       0.00014773
In       6.63564436       1.04063985       1.50736307        1      -0.00012062       0.00008529      -0.00014773
In       1.23075679      -0.87027647       4.81716723        2      -0.00012062       0.00008529      -0.00014773
In      -1.35122189      -1.91091632       3.30980416        3      -0.00000000      -0.00000000      -0.00000000
In      -1.23075679       3.73665096       3.16226515        4       0.00012062      -0.00008529      -0.00014773
In       4.17413077      -2.69601111       4.96470624        5       0.00012062       0.00017058       0.00000000
In      -1.23075679       1.12582154       4.96470624        6       0.00012062       0.00017058       0.00000000
In      -1.47168699       6.51784376       1.65490208        7      -0.00012062      -0.00017058      -0.00000000
In       3.93320057       0.08518169       3.45734317        8      -0.00012062       0.00008529       0.00014773
In      -1.35122189       3.82183265      -0.00000000        9      -0.00000000      -0.00000000      -0.00000000
In       3.93320057       5.81793066       0.14753901       10      -0.00012062       0.00008529       0.00014773
In      -1.23075679      -1.99609801       6.47206931       11       0.00012062      -0.00008529      -0.00014773
In       3.93320057       2.69601111       1.65490208       12      -0.00012062      -0.00017058      -0.00000000
In       1.47168699       4.69210912       1.80244109       13       0.00012062      -0.00008529       0.00014773
In       4.05366567       0.00000000      -0.00000000       14       0.00000000       0.00000000      -0.00000000
In       1.35122189       1.91091633       3.30980416       15       0.00000000      -0.00000000       0.00000000
O        0.62469272       3.76615911       3.61988954       16      -0.00001177      -0.00059948       0.00019361
O       -2.07775106       3.16275308       4.85787825       17      -0.00001177       0.00046741       0.00042236
O       -0.46564479       2.02282180       0.21268881       18      -0.00012844       0.00054991       0.00027947
O       -0.62469273      -0.71475311       1.85815947       19       0.00001177      -0.00013207       0.00061597
O        3.67445588       4.65938171       1.64547066       20       0.00044460       0.00029342       0.00033650
O        1.73043168       2.81558778       1.54807409       21      -0.00044460      -0.00014471       0.00042236
O        1.73043168       5.66562657       0.09739657       22      -0.00044460       0.00043813      -0.00008586
O       -2.06234962       5.49748916       3.52249297       23      -0.00056128      -0.00006221       0.00027947
O        3.16808857       1.79901085       6.40691951       24       0.00012844      -0.00054991      -0.00027947
O        4.76479340      -1.67565651       3.09711535       25       0.00056128       0.00006221      -0.00027947
O        5.87053235       3.10652114       1.66433350       26       0.00012844       0.00051698      -0.00033650
O        3.34253795       2.21274015       3.40720073       27      -0.00056128       0.00027313      -0.00008586
O        0.64009417       3.75526864       6.30952294       28      -0.00056128      -0.00021092      -0.00019361
O        2.06234961       0.06656401       0.31008538       29       0.00056128       0.00021092       0.00019361
O       -3.16808857       0.71531151       4.95527482       30      -0.00012844      -0.00051698       0.00033650
O        4.78019484       0.65907957       1.76173007       31       0.00001177      -0.00046741      -0.00042236
O        0.97201210       1.00624487       5.07153423       32       0.00044460       0.00014471      -0.00042236
O        3.16808857      -1.08369934       5.16796363       33       0.00012844       0.00003293       0.00061597
O        2.07775106       0.05567354       2.99971878       34       0.00001177       0.00059948      -0.00019361
O        0.97201210      -1.84379392       6.52221175       35       0.00044460      -0.00043813       0.00008586
O       -0.64009417       1.60909250       3.21240759       36       0.00056128      -0.00027313       0.00008586
O       -0.97201210      -0.83754906       4.97413766       37      -0.00044460      -0.00029342      -0.00033650
O       -0.46564479       4.90553199       1.45164468       38      -0.00012844      -0.00003293      -0.00061597
O        3.32713650       4.53658576       4.76144885       39      -0.00001177       0.00013207      -0.00061597
