40
Lattice="9.547790140445434 7.483253272458672e-10 1.7830846753400062e-14 -3.1825967141873406 9.00174287129059 -1.2961630601199633e-09 -3.1825967131290644 -4.500871434896952 7.795738005737225" Properties=species:S:1:pos:R:3:spacegroup_kinds:I:1:forces:R:3 spacegroup="P 1" unit_cell=conventional occupancy="_JSON {\"0\": {\"In\": 1}, \"1\": {\"In\": 1}, \"2\": {\"In\": 1}, \"3\": {\"In\": 1}, \"4\": {\"In\": 1}, \"5\": {\"In\": 1}, \"6\": {\"In\": 1}, \"7\": {\"In\": 1}, \"8\": {\"In\": 1}, \"9\": {\"In\": 1}, \"10\": {\"In\": 1}, \"11\": {\"In\": 1}, \"12\": {\"In\": 1}, \"13\": {\"In\": 1}, \"14\": {\"In\": 1}, \"15\": {\"In\": 1}, \"16\": {\"O\": 1}, \"17\": {\"O\": 1}, \"18\": {\"O\": 1}, \"19\": {\"O\": 1}, \"20\": {\"O\": 1}, \"21\": {\"O\": 1}, \"22\": {\"O\": 1}, \"23\": {\"O\": 1}, \"24\": {\"O\": 1}, \"25\": {\"O\": 1}, \"26\": {\"O\": 1}, \"27\": {\"O\": 1}, \"28\": {\"O\": 1}, \"29\": {\"O\": 1}, \"30\": {\"O\": 1}, \"31\": {\"O\": 1}, \"32\": {\"O\": 1}, \"33\": {\"O\": 1}, \"34\": {\"O\": 1}, \"35\": {\"O\": 1}, \"36\": {\"O\": 1}, \"37\": {\"O\": 1}, \"38\": {\"O\": 1}, \"39\": {\"O\": 1}}" n_minim_iter=3 energy=-45147.58755373568 stress="0.0249791510589477 -1.2779084876438251e-12 -7.027300449511811e-13 -1.2779084876438251e-12 0.024979151059589973 1.344904220146309e-12 -7.027300449511811e-13 1.344904220146309e-12 0.024979151060829614" free_energy=-45147.58755373568 pbc="T T T"
In      -4.59112847       3.24641808       6.07064595        0       0.00056318      -0.00039823       0.00068976
In       7.77372518       1.25445336       1.72509205        1      -0.00056318       0.00039823      -0.00068976
In       1.40853176      -0.99598236       5.62296105        2      -0.00056318       0.00039823      -0.00068976
In      -1.59129836      -2.25043572       3.89786900        3      -0.00000000      -0.00000000      -0.00000000
In      -1.40853176       4.37163594       3.67402655        4       0.00056318      -0.00039823      -0.00068976
In       4.95666167      -3.11718257       5.84680350        5       0.00056318       0.00079646      -0.00000000
In      -1.40853176       1.38368886       5.84680350        6       0.00056318       0.00079646       0.00000000
In      -1.77406496       7.61805401       1.94893450        7      -0.00056318      -0.00079646      -0.00000000
In       4.59112847       0.12923550       4.12171145        8      -0.00056318       0.00039823       0.00068976
In      -1.59129836       4.50087144      -0.00000000        9       0.00000000       0.00000000      -0.00000000
In       4.59112847       6.88054266       0.22384245       10      -0.00056318       0.00039823       0.00068976
In      -1.40853176      -2.37967122       7.57189555       11       0.00056318      -0.00039823      -0.00068976
In       4.59112847       3.11718258       1.94893450       12      -0.00056318      -0.00079646      -0.00000000
In       1.77406495       5.49685380       2.17277695       13       0.00056318      -0.00039823       0.00068976
In       4.77389507       0.00000000      -0.00000000       14       0.00000000      -0.00000000      -0.00000000
In       1.59129835       2.25043572       3.89786900       15       0.00000000      -0.00000000      -0.00000000
O        0.94814433       4.52267242       4.21039251       16      -0.00152210       0.00019598      -0.00352121
O       -2.23445238       3.63540639       5.67166154       17      -0.00152210      -0.00314745       0.00159088
O       -0.47936600       2.39437291       0.02545658       18      -0.00329003      -0.00189733      -0.00057439
O       -0.94814434      -0.84366407       2.08631605       19       0.00152210      -0.00295146      -0.00193033
O        4.17231147       5.35923287       2.06085947       20      -0.00246007       0.00261984      -0.00135594
O        2.19288195       3.14529549       1.77379254       21       0.00246007       0.00248420       0.00159088
O        2.19288195       6.71480881       0.28706693       22       0.00246007       0.00013564      -0.00294682
O       -2.41722510       6.40513345       3.92332558       23       0.00069214       0.00373432      -0.00057439
O        3.66196271       2.10649853       7.77028142       24       0.00329003       0.00189733       0.00057439
O        5.59982181      -1.90426201       3.87241242       25      -0.00069214      -0.00373432       0.00057439
O        6.84455943       3.46966822       1.83700952       26       0.00329003      -0.00144610       0.00135594
O        3.94796833       2.44556862       4.18493593       27       0.00069214      -0.00236459      -0.00294682
O        0.76537162       4.65191225       7.48321449       28       0.00069214      -0.00136972       0.00352121
O        2.41722509      -0.15104080       0.31252351       29      -0.00069214       0.00136972      -0.00352121
O       -3.66196272       1.03120322       5.95872848       30      -0.00329003       0.00144610      -0.00135594
O        5.41704909       0.86546505       2.12407645       31       0.00152210       0.00314745      -0.00159088
O        0.98971476       1.35557595       6.02194546       32      -0.00246007      -0.00248420      -0.00159088
O        3.66196271      -1.07529531       5.98418506       33       0.00329003      -0.00045123      -0.00193033
O        2.23445238      -0.02180098       3.58534549       34       0.00152210      -0.00019598       0.00352121
O        0.98971476      -2.21393737       7.50867107       35      -0.00246007      -0.00013564       0.00294682
O       -0.76537162       2.05530282       3.61080207       36      -0.00069214       0.00236459       0.00294682
O       -0.98971476      -0.85836143       5.73487853       37       0.00246007      -0.00261984       0.00135594
O       -0.47936600       5.57616675       1.81155294       38      -0.00329003       0.00045123       0.00193033
O        4.13074105       5.34453551       5.70942194       39      -0.00152210       0.00295146       0.00193033
