40
Lattice="9.348819652298282 7.32727206471831e-10 7.678462797637145e-15 -3.1162732181235833 8.81415169606266 -1.2691435859407006e-09 -3.1162732170873544 -4.407075847298588 7.633279282446048" Properties=species:S:1:pos:R:3:spacegroup_kinds:I:1:forces:R:3 spacegroup="P 1" unit_cell=conventional occupancy="_JSON {\"0\": {\"In\": 1}, \"1\": {\"In\": 1}, \"2\": {\"In\": 1}, \"3\": {\"In\": 1}, \"4\": {\"In\": 1}, \"5\": {\"In\": 1}, \"6\": {\"In\": 1}, \"7\": {\"In\": 1}, \"8\": {\"In\": 1}, \"9\": {\"In\": 1}, \"10\": {\"In\": 1}, \"11\": {\"In\": 1}, \"12\": {\"In\": 1}, \"13\": {\"In\": 1}, \"14\": {\"In\": 1}, \"15\": {\"In\": 1}, \"16\": {\"O\": 1}, \"17\": {\"O\": 1}, \"18\": {\"O\": 1}, \"19\": {\"O\": 1}, \"20\": {\"O\": 1}, \"21\": {\"O\": 1}, \"22\": {\"O\": 1}, \"23\": {\"O\": 1}, \"24\": {\"O\": 1}, \"25\": {\"O\": 1}, \"26\": {\"O\": 1}, \"27\": {\"O\": 1}, \"28\": {\"O\": 1}, \"29\": {\"O\": 1}, \"30\": {\"O\": 1}, \"31\": {\"O\": 1}, \"32\": {\"O\": 1}, \"33\": {\"O\": 1}, \"34\": {\"O\": 1}, \"35\": {\"O\": 1}, \"36\": {\"O\": 1}, \"37\": {\"O\": 1}, \"38\": {\"O\": 1}, \"39\": {\"O\": 1}}" n_minim_iter=1 energy=-45148.47873941527 stress="0.025915101665147402 2.2880864988249473e-12 -9.800455810561513e-13 2.2880864988249473e-12 0.025915101663235626 5.3160954547674777e-14 -9.800455810561513e-13 5.3160954547674777e-14 0.025915101661836686" free_energy=-45148.47873941527 pbc="T T T"
In      -4.46717333       3.15876856       5.97877129        0      -0.07199668       0.05090934      -0.08817757
In       7.58344655       1.24830730       1.65450798        1       0.07199668      -0.05090934       0.08817757
In       1.35090011      -0.95523063       5.47114762        2       0.07199668      -0.05090934       0.08817757
In      -1.55813661      -2.20353792       3.81663964        3       0.00000000       0.00000000       0.00000000
In      -1.35090011       4.26053752       3.56282780        4      -0.07199668       0.05090934       0.08817757
In       4.88164632      -3.01223022       5.72495946        5      -0.07199668      -0.10181869       0.00000000
In      -1.35090011       1.39484563       5.72495946        6      -0.07199668      -0.10181869       0.00000000
In      -1.76537311       7.41930607       1.90831982        7       0.07199668       0.10181869       0.00000000
In       4.46717333       0.14653833       4.07045147        8       0.07199668      -0.05090934      -0.08817757
In      -1.55813661       4.40707585      -0.00000000        9       0.00000000       0.00000000       0.00000000
In       4.46717333       6.75715211       0.25381183       10       0.07199668      -0.05090934      -0.08817757
In      -1.35090011      -2.35007625       7.37946744       11      -0.07199668       0.05090934       0.08817757
In       4.46717333       3.01223022       1.90831982       12       0.07199668       0.10181869       0.00000000
In       1.76537310       5.36230648       2.16213165       13      -0.07199668       0.05090934      -0.08817757
In       4.67440982       0.00000000      -0.00000000       14      -0.00000000       0.00000000       0.00000000
In       1.55813661       2.20353793       3.81663964       15      -0.00000000       0.00000000      -0.00000000
O        0.93375969       4.41207792       4.13858677       16       0.02494447       0.03061492      -0.09190774
O       -2.18251353       3.58162025       5.55965397       17       0.02494447      -0.09490190       0.01944057
O       -0.46227778       2.36522988       0.03322460       18      -0.05229552      -0.04028497      -0.07515871
O       -0.93375969      -0.82045353       2.06496146       19      -0.02494447      -0.06428698      -0.07246717
O        4.10428846       5.24671161       2.03173686       20      -0.09778919       0.02089408       0.00269154
O        2.12825797       3.06735800       1.74301433       21       0.09778919       0.00811609       0.01944057
O        2.12825797       6.58642947       0.28872253       22       0.09778919       0.01277798      -0.01674903
O       -2.38405271       6.25804348       3.84986424       23       0.02054920       0.06273302      -0.07515871
O        3.57855099       2.04184597       7.60005467       24       0.05229552       0.04028497       0.07515871
O        5.50032592      -1.85096763       3.78341503       25      -0.02054920      -0.06273302       0.07515871
O        6.69482421       3.41492622       1.78490278       26       0.05229552      -0.08523184      -0.00269154
O        3.84849372       2.40859643       4.10536217       27       0.02054920      -0.09645586      -0.01674903
O        0.73222051       4.55458765       7.31133214       28       0.02054920       0.03372284       0.09190774
O        2.38405271      -0.14751179       0.32194713       29      -0.02054920      -0.03372284      -0.09190774
O       -3.57855099       0.99214963       5.84837650       30      -0.05229552       0.08523184       0.00269154
O        5.29878674       0.82545560       2.07362531       31      -0.02494447       0.09490190      -0.01944057
O        0.98801524       1.33971786       5.89026495       32      -0.09778919      -0.00811609      -0.01944057
O        3.57855099      -1.04969633       5.88160110       33       0.05229552       0.04494687      -0.07246717
O        2.18251353      -0.00500207       3.49469250       34      -0.02494447      -0.03061492       0.09190774
O        0.98801524      -2.17935361       7.34455675       35      -0.09778919      -0.01277798       0.01674903
O       -0.73222051       1.99847943       3.52791711       36      -0.02054920       0.09645586       0.01674903
O       -0.98801525      -0.83963576       5.60154242       37       0.09778919      -0.02089408      -0.00269154
O       -0.46227778       5.45677219       1.75167817       38      -0.05229552      -0.04494687       0.07246717
O        4.05003291       5.22752938       5.56831781       39       0.02494447       0.06428698       0.07246717
40
Lattice="9.348819652298284 7.327272064718313e-10 7.678462797637148e-15 -3.1162732181235846 8.814151696062662 -1.269143585940701e-09 -3.1162732170873557 -4.4070758472985885 7.633279282446051" Properties=species:S:1:pos:R:3:spacegroup_kinds:I:1:forces:R:3 spacegroup="P 1" unit_cell=conventional occupancy="_JSON {\"0\": {\"In\": 1}, \"1\": {\"In\": 1}, \"2\": {\"In\": 1}, \"3\": {\"In\": 1}, \"4\": {\"In\": 1}, \"5\": {\"In\": 1}, \"6\": {\"In\": 1}, \"7\": {\"In\": 1}, \"8\": {\"In\": 1}, \"9\": {\"In\": 1}, \"10\": {\"In\": 1}, \"11\": {\"In\": 1}, \"12\": {\"In\": 1}, \"13\": {\"In\": 1}, \"14\": {\"In\": 1}, \"15\": {\"In\": 1}, \"16\": {\"O\": 1}, \"17\": {\"O\": 1}, \"18\": {\"O\": 1}, \"19\": {\"O\": 1}, \"20\": {\"O\": 1}, \"21\": {\"O\": 1}, \"22\": {\"O\": 1}, \"23\": {\"O\": 1}, \"24\": {\"O\": 1}, \"25\": {\"O\": 1}, \"26\": {\"O\": 1}, \"27\": {\"O\": 1}, \"28\": {\"O\": 1}, \"29\": {\"O\": 1}, \"30\": {\"O\": 1}, \"31\": {\"O\": 1}, \"32\": {\"O\": 1}, \"33\": {\"O\": 1}, \"34\": {\"O\": 1}, \"35\": {\"O\": 1}, \"36\": {\"O\": 1}, \"37\": {\"O\": 1}, \"38\": {\"O\": 1}, \"39\": {\"O\": 1}}" n_minim_iter=2 energy=-45148.498655840354 stress="0.023795664103262813 -4.243554150015045e-13 1.6712469170184998e-12 -4.243554150015045e-13 0.023795664103187238 -8.494295441810369e-13 1.6712469170184998e-12 -8.494295441810369e-13 0.023795664102591176" free_energy=-45148.498655840354 pbc="T T T"
In      -4.47231595       3.16240494       5.97247290        0      -0.02509441       0.01774443      -0.03073425
In       7.58858917       1.24467091       1.66080638        1       0.02509441      -0.01774443       0.03073425
In       1.35604273      -0.95886701       5.47744602        2       0.02509441      -0.01774443       0.03073425
In      -1.55813661      -2.20353792       3.81663964        3       0.00000000      -0.00000000      -0.00000000
In      -1.35604273       4.26417390       3.56912620        4      -0.02509441       0.01774443       0.03073425
In       4.87650370      -3.01950298       5.72495946        5      -0.02509441      -0.03548886       0.00000000
In      -1.35604273       1.38757286       5.72495946        6      -0.02509441      -0.03548886      -0.00000000
In      -1.76023049       7.42657884       1.90831982        7       0.02509441       0.03548886      -0.00000000
In       4.47231595       0.14290195       4.06415308        8       0.02509441      -0.01774443      -0.03073425
In      -1.55813661       4.40707585      -0.00000000        9      -0.00000000       0.00000000      -0.00000000
In       4.47231595       6.75351572       0.24751343       10       0.02509441      -0.01774443      -0.03073425
In      -1.35604273      -2.34643987       7.38576584       11      -0.02509441       0.01774443       0.03073425
In       4.47231595       3.01950299       1.90831982       12       0.02509441       0.03548886      -0.00000000
In       1.76023048       5.36594286       2.15583326       13      -0.02509441       0.01774443      -0.03073425
In       4.67440982       0.00000000      -0.00000000       14      -0.00000000      -0.00000000      -0.00000000
In       1.55813661       2.20353793       3.81663964       15      -0.00000000      -0.00000000       0.00000000
O        0.93554144       4.41426470       4.13202193       16       0.01209832       0.00794874      -0.02390555
O       -2.18073178       3.57484154       5.56104258       17       0.01209832      -0.02467718       0.00506897
O       -0.46601317       2.36235238       0.02785612       18      -0.01173895      -0.00782168      -0.02412561
O       -0.93554144      -0.82504545       2.05978524       19      -0.01209832      -0.01672844      -0.01883658
O        4.09730352       5.24820405       2.03192911       20      -0.02729864       0.00279951       0.00528903
O        2.13524291       3.06793772       1.74440294       21       0.02729864      -0.00318068       0.00506897
O        2.13524291       6.58734218       0.28752617       22       0.02729864       0.00598019       0.00022007
O       -2.38258491       6.26252441       3.84449576       23       0.00346137       0.01367482      -0.02412561
O        3.58228638       2.04472347       7.60542315       24       0.01173895       0.00782168       0.02412561
O        5.49885813      -1.85544856       3.78878351       25      -0.00346137      -0.01367482       0.02412561
O        6.69855960       3.40883823       1.78471053       26       0.01173895      -0.02480423      -0.00528903
O        3.84996152       2.40170672       4.10416581       27       0.00346137      -0.02773080       0.00022007
O        0.73368831       4.55699642       7.31789698       28       0.00346137       0.01405598       0.02390555
O        2.38258491      -0.14992057       0.31538229       29      -0.00346137      -0.01405598      -0.02390555
O       -3.58228639       0.99823762       5.84856875       30      -0.01173895       0.02480423       0.00528903
O        5.29700500       0.83223431       2.07223670       31      -0.01209832       0.02467718      -0.00506897
O        0.98103030       1.33913813       5.88887634       32      -0.02729864       0.00318068      -0.00506897
O        3.58228638      -1.04648584       5.87642488       33       0.01173895       0.01698255      -0.01883658
O        2.18073178      -0.00718885       3.50125734       34      -0.01209832      -0.00794874       0.02390555
O        0.98103030      -2.18026633       7.34575311       35      -0.02729864      -0.00598019      -0.00022007
O       -0.73368831       2.00536913       3.52911347       36      -0.00346137       0.02773080      -0.00022007
O       -0.98103030      -0.84112820       5.60135017       37       0.02729864      -0.00279951      -0.00528903
O       -0.46601317       5.45356170       1.75685440       38      -0.01173895      -0.01698255       0.01883658
O        4.05181465       5.23212131       5.57349404       39       0.01209832       0.01672844       0.01883658
40
Lattice="9.348819652298284 7.327272064718316e-10 7.678462797637145e-15 -3.116273218123586 8.814151696062662 -1.2691435859407014e-09 -3.116273217087357 -4.4070758472985885 7.633279282446054" Properties=species:S:1:pos:R:3:spacegroup_kinds:I:1:forces:R:3 spacegroup="P 1" unit_cell=conventional occupancy="_JSON {\"0\": {\"In\": 1}, \"1\": {\"In\": 1}, \"2\": {\"In\": 1}, \"3\": {\"In\": 1}, \"4\": {\"In\": 1}, \"5\": {\"In\": 1}, \"6\": {\"In\": 1}, \"7\": {\"In\": 1}, \"8\": {\"In\": 1}, \"9\": {\"In\": 1}, \"10\": {\"In\": 1}, \"11\": {\"In\": 1}, \"12\": {\"In\": 1}, \"13\": {\"In\": 1}, \"14\": {\"In\": 1}, \"15\": {\"In\": 1}, \"16\": {\"O\": 1}, \"17\": {\"O\": 1}, \"18\": {\"O\": 1}, \"19\": {\"O\": 1}, \"20\": {\"O\": 1}, \"21\": {\"O\": 1}, \"22\": {\"O\": 1}, \"23\": {\"O\": 1}, \"24\": {\"O\": 1}, \"25\": {\"O\": 1}, \"26\": {\"O\": 1}, \"27\": {\"O\": 1}, \"28\": {\"O\": 1}, \"29\": {\"O\": 1}, \"30\": {\"O\": 1}, \"31\": {\"O\": 1}, \"32\": {\"O\": 1}, \"33\": {\"O\": 1}, \"34\": {\"O\": 1}, \"35\": {\"O\": 1}, \"36\": {\"O\": 1}, \"37\": {\"O\": 1}, \"38\": {\"O\": 1}, \"39\": {\"O\": 1}}" n_minim_iter=3 energy=-45148.50075814998 stress="0.02280877052613386 -1.4590648409710936e-12 1.7278336284873785e-12 -1.4590648409710936e-12 0.02280877053013398 1.414879859804987e-12 1.7278336284873785e-12 1.414879859804987e-12 0.022808770525873327" free_energy=-45148.50075814998 pbc="T T T"
In      -4.47465877       3.16406156       5.96960354        0      -0.00388497       0.00274709      -0.00475809
In       7.59093199       1.24301429       1.66367574        1       0.00388497      -0.00274709       0.00475809
In       1.35838555      -0.96052363       5.48031538        2       0.00388497      -0.00274709       0.00475809
In      -1.55813661      -2.20353792       3.81663964        3       0.00000000      -0.00000000      -0.00000000
In      -1.35838555       4.26583052       3.57199556        4      -0.00388497       0.00274709       0.00475809
In       4.87416088      -3.02281623       5.72495946        5      -0.00388497      -0.00549417       0.00000000
In      -1.35838555       1.38425962       5.72495946        6      -0.00388497      -0.00549417       0.00000000
In      -1.75788767       7.42989208       1.90831982        7       0.00388497       0.00549417       0.00000000
In       4.47465877       0.14124533       4.06128372        8       0.00388497      -0.00274709      -0.00475809
In      -1.55813661       4.40707585      -0.00000000        9      -0.00000000      -0.00000000       0.00000000
In       4.47465877       6.75185910       0.24464408       10       0.00388497      -0.00274709      -0.00475809
In      -1.35838555      -2.34478325       7.38863520       11      -0.00388497       0.00274709       0.00475809
In       4.47465877       3.02281623       1.90831982       12       0.00388497       0.00549417       0.00000000
In       1.75788766       5.36759949       2.15296390       13      -0.00388497       0.00274709      -0.00475809
In       4.67440982       0.00000000      -0.00000000       14      -0.00000000      -0.00000000       0.00000000
In       1.55813661       2.20353793       3.81663964       15       0.00000000       0.00000000      -0.00000000
O        0.93642328       4.41520485       4.12919868       16       0.00582575      -0.00192284       0.00553068
O       -2.17984994       3.57192646       5.56164002       17       0.00582575       0.00575113      -0.00110011
O       -0.46758122       2.36116963       0.02545308       18       0.00555126       0.00594522      -0.00143629
O       -0.93642328      -0.82702039       2.05755942       19      -0.00582575       0.00382829       0.00443057
O        4.09426120       5.24879159       2.03210634       20       0.00348030      -0.00465753       0.00586686
O        2.13828523       3.06807801       1.74500038       21      -0.00348030      -0.00740962      -0.00110011
O        2.13828523       6.58778943       0.28710595       22      -0.00348030       0.00275208       0.00696697
O       -2.38199248       6.26439703       3.84209272       23      -0.00375479      -0.00721552      -0.00143629
O        3.58385443       2.04590622       7.60782620       24      -0.00555126      -0.00594522       0.00143629
O        5.49826569      -1.85732117       3.79118656       25       0.00375479       0.00721552       0.00143629
O        6.70012765       3.40616575       1.78453330       26      -0.00555126       0.00172874      -0.00586686
O        3.85055396       2.39868931       4.10374560       27      -0.00375479       0.00236389       0.00696697
O        0.73428074       4.55814121       7.32072024       28      -0.00375479       0.00485163      -0.00553068
O        2.38199248      -0.15106536       0.31255904       29       0.00375479      -0.00485163       0.00553068
O       -3.58385443       1.00091010       5.84874598       30       0.00555126      -0.00172874       0.00586686
O        5.29612315       0.83514940       2.07163926       31      -0.00582575      -0.00575113       0.00110011
O        0.97798798       1.33899785       5.88827890       32       0.00348030       0.00740962       0.00110011
O        3.58385443      -1.04499612       5.87419906       33      -0.00555126       0.00421648       0.00443057
O        2.17984994      -0.00812900       3.50408060       34      -0.00582575       0.00192284      -0.00553068
O        0.97798798      -2.18071358       7.34617332       35       0.00348030      -0.00275208      -0.00696697
O       -0.73428074       2.00838654       3.52953368       36       0.00375479      -0.00236389      -0.00696697
O       -0.97798799      -0.84171574       5.60117294       37      -0.00348030       0.00465753      -0.00586686
O       -0.46758122       5.45207197       1.75908022       38       0.00555126      -0.00421648      -0.00443057
O        4.05269649       5.23409625       5.57571986       39       0.00582575      -0.00382829      -0.00443057
