40
Lattice="8.694369222494501 6.814344737690873e-10 7.92618147118383e-15 -2.8981230748072973 8.197129913593486 -1.1802987182997888e-09 -2.8981230738436086 -4.098564956115293 7.098922744080161" Properties=species:S:1:pos:R:3:spacegroup_kinds:I:1:forces:R:3 spacegroup="P 1" unit_cell=conventional occupancy="_JSON {\"0\": {\"In\": 1}, \"1\": {\"In\": 1}, \"2\": {\"In\": 1}, \"3\": {\"In\": 1}, \"4\": {\"In\": 1}, \"5\": {\"In\": 1}, \"6\": {\"In\": 1}, \"7\": {\"In\": 1}, \"8\": {\"In\": 1}, \"9\": {\"In\": 1}, \"10\": {\"In\": 1}, \"11\": {\"In\": 1}, \"12\": {\"In\": 1}, \"13\": {\"In\": 1}, \"14\": {\"In\": 1}, \"15\": {\"In\": 1}, \"16\": {\"O\": 1}, \"17\": {\"O\": 1}, \"18\": {\"O\": 1}, \"19\": {\"O\": 1}, \"20\": {\"O\": 1}, \"21\": {\"O\": 1}, \"22\": {\"O\": 1}, \"23\": {\"O\": 1}, \"24\": {\"O\": 1}, \"25\": {\"O\": 1}, \"26\": {\"O\": 1}, \"27\": {\"O\": 1}, \"28\": {\"O\": 1}, \"29\": {\"O\": 1}, \"30\": {\"O\": 1}, \"31\": {\"O\": 1}, \"32\": {\"O\": 1}, \"33\": {\"O\": 1}, \"34\": {\"O\": 1}, \"35\": {\"O\": 1}, \"36\": {\"O\": 1}, \"37\": {\"O\": 1}, \"38\": {\"O\": 1}, \"39\": {\"O\": 1}}" n_minim_iter=5 energy=-45149.40300301302 stress="-0.05553431172216493 1.1922193016468634e-12 1.691436949064218e-12 1.1922193016468634e-12 -0.055534311719777414 -1.4878935207738693e-12 1.691436949064218e-12 -1.4878935207738693e-12 -0.055534311716410205" free_energy=-45149.40300301302 pbc="T T T"
In      -4.15670272       2.93923268       5.55748378        0      -0.00201699       0.00142623      -0.00247030
In       7.05482579       1.15933228       1.54143896        1       0.00201699      -0.00142623       0.00247030
In       1.25857964      -0.88995020       5.09090033        2       0.00201699      -0.00142623       0.00247030
In      -1.44906154      -2.04928248       3.54946137        3       0.00000000      -0.00000000       0.00000000
In      -1.25857965       3.96387392       3.31616965        4      -0.00201699       0.00142623       0.00247030
In       4.53766650      -2.80454164       5.32419206        5      -0.00201699      -0.00285246      -0.00000000
In      -1.25857965       1.29402332       5.32419206        6      -0.00201699      -0.00285246      -0.00000000
In      -1.63954343       6.90310660       1.77473068        7       0.00201699       0.00285246       0.00000000
In       4.15670272       0.13469104       3.78275309        8       0.00201699      -0.00142623      -0.00247030
In      -1.44906154       4.09856496      -0.00000000        9       0.00000000       0.00000000      -0.00000000
In       4.15670272       6.28253848       0.23329172       10       0.00201699      -0.00142623      -0.00247030
In      -1.25857965      -2.18397351       6.86563102       11      -0.00201699       0.00142623       0.00247030
In       4.15670272       2.80454164       1.77473068       12       0.00201699       0.00285246      -0.00000000
In       1.63954343       4.98851516       2.00802240       13      -0.00201699       0.00142623      -0.00247030
In       4.34718461       0.00000000      -0.00000000       14       0.00000000      -0.00000000      -0.00000000
In       1.44906154       2.04928248       3.54946137       15       0.00000000       0.00000000       0.00000000
O        0.87320150       4.10405238       3.85862631       16      -0.00002597       0.00527199      -0.00024275
O       -2.02492157       3.33892470       5.16485734       17      -0.00002597      -0.00284622      -0.00444431
O       -0.41995495       2.20404192       0.03160924       18       0.00227838      -0.00447565      -0.00162207
O       -0.87320150      -0.75415284       1.92456091       19       0.00002597       0.00242577      -0.00468706
O        3.82294225       4.87096740       1.89295167       20      -0.00267479      -0.00336227      -0.00306499
O        1.97330389       2.84542195       1.61539597       21       0.00267479       0.00097322      -0.00444431
O        1.97330389       6.12411041       0.27755569       22       0.00267479      -0.00433549       0.00137932
O       -2.21797563       5.80910412       3.58107061       23       0.00497914      -0.00065620      -0.00162207
O        3.31807802       1.89452304       7.06731350       24      -0.00227838       0.00447565       0.00162207
O        5.11609870      -1.71053916       3.51785212       25      -0.00497914       0.00065620       0.00162207
O        6.21620109       3.17867785       1.65650970       26      -0.00227838      -0.00364257       0.00306499
O        3.57827052       2.24602855       3.82701707       27       0.00497914      -0.00107665       0.00137932
O        0.68014744       4.24056221       6.78975780       28       0.00497914       0.00173285       0.00024275
O        2.21797563      -0.14199725       0.30916494       29      -0.00497914      -0.00173285      -0.00024275
O       -3.31807802       0.91988711       5.44241304       30       0.00227838       0.00364257      -0.00306499
O        4.92304465       0.75964026       1.93406540       31       0.00002597       0.00284622       0.00444431
O        0.92481918       1.25314301       5.48352677       32      -0.00267479      -0.00097322       0.00444431
O        3.31807802      -0.97463593       5.47402228       33      -0.00227838      -0.00083307      -0.00468706
O        2.02492157      -0.00548742       3.24029643       34       0.00002597      -0.00527199       0.00024275
O        0.92481918      -2.02554545       6.82136704       35      -0.00267479       0.00433549      -0.00137932
O       -0.68014745       1.85253641       3.27190567       36      -0.00497914       0.00107665      -0.00137932
O       -0.92481918      -0.77240244       5.20597107       37       0.00267479       0.00336227       0.00306499
O       -0.41995495       5.07320089       1.62490046       38       0.00227838       0.00083307       0.00468706
O        3.77132457       4.85271780       5.17436183       39      -0.00002597      -0.00242577       0.00468706
