40
Lattice="9.280577659911733 7.273827861899423e-10 5.743272110880735e-15 -3.093525887323027 8.749812528626832 -1.2598790981523983e-09 -3.0935258862943606 -4.374906263586021 7.577559928982106" Properties=species:S:1:pos:R:3:spacegroup_kinds:I:1:forces:R:3 spacegroup="P 1" unit_cell=conventional occupancy="_JSON {\"0\": {\"In\": 1}, \"1\": {\"In\": 1}, \"2\": {\"In\": 1}, \"3\": {\"In\": 1}, \"4\": {\"In\": 1}, \"5\": {\"In\": 1}, \"6\": {\"In\": 1}, \"7\": {\"In\": 1}, \"8\": {\"In\": 1}, \"9\": {\"In\": 1}, \"10\": {\"In\": 1}, \"11\": {\"In\": 1}, \"12\": {\"In\": 1}, \"13\": {\"In\": 1}, \"14\": {\"In\": 1}, \"15\": {\"In\": 1}, \"16\": {\"O\": 1}, \"17\": {\"O\": 1}, \"18\": {\"O\": 1}, \"19\": {\"O\": 1}, \"20\": {\"O\": 1}, \"21\": {\"O\": 1}, \"22\": {\"O\": 1}, \"23\": {\"O\": 1}, \"24\": {\"O\": 1}, \"25\": {\"O\": 1}, \"26\": {\"O\": 1}, \"27\": {\"O\": 1}, \"28\": {\"O\": 1}, \"29\": {\"O\": 1}, \"30\": {\"O\": 1}, \"31\": {\"O\": 1}, \"32\": {\"O\": 1}, \"33\": {\"O\": 1}, \"34\": {\"O\": 1}, \"35\": {\"O\": 1}, \"36\": {\"O\": 1}, \"37\": {\"O\": 1}, \"38\": {\"O\": 1}, \"39\": {\"O\": 1}}" n_minim_iter=5 energy=-45148.83453198868 stress="0.026070154903329736 3.4766915079722226e-13 9.149440495022478e-13 3.4766915079722226e-13 0.026070154903954725 -1.0027298562478277e-12 9.149440495022478e-13 -1.0027298562478277e-12 0.02607015490656337" free_energy=-45148.83453198868 pbc="T T T"
In      -4.43456506       3.13571103       5.93512907        0       0.00242926      -0.00171775       0.00297523
In       7.52809095       1.23919524       1.64243085        1      -0.00242926       0.00171775      -0.00297523
In       1.34103917      -0.94825789       5.43121082        2      -0.00242926       0.00171775      -0.00297523
In      -1.54676294      -2.18745313       3.78877996        3       0.00000000      -0.00000000       0.00000000
In      -1.34103918       4.22943760       3.53682083        4       0.00242926      -0.00171775      -0.00297523
In       4.84601260      -2.99024235       5.68316994        5       0.00242926       0.00343550      -0.00000000
In      -1.34103918       1.38466391       5.68316994        6       0.00242926       0.00343550       0.00000000
In      -1.75248671       7.36514862       1.89438998        7      -0.00242926      -0.00343550       0.00000000
In       4.43456506       0.14546867       4.04073909        8      -0.00242926       0.00171775       0.00297523
In      -1.54676295       4.37490627      -0.00000000        9      -0.00000000      -0.00000000       0.00000000
In       4.43456506       6.70782807       0.25195913       10      -0.00242926       0.00171775       0.00297523
In      -1.34103918      -2.33292180       7.32560080       11       0.00242926      -0.00171775      -0.00297523
In       4.43456506       2.99024236       1.89438998       12      -0.00242926      -0.00343550       0.00000000
In       1.75248671       5.32316416       2.14634911       13       0.00242926      -0.00171775       0.00297523
In       4.64028883       0.00000000      -0.00000000       14       0.00000000      -0.00000000       0.00000000
In       1.54676294       2.18745313       3.78877996       15       0.00000000       0.00000000       0.00000000
O        0.92694368       4.37987183       4.10837703       16       0.00098944      -0.00260369       0.00410193
O       -2.16658221       3.55547610       5.51907111       17       0.00098944       0.00485422       0.00020390
O       -0.45890337       2.34796482       0.03298208       18       0.00245163       0.00382029       0.00199471
O       -0.92694368      -0.81446460       2.04988821       19      -0.00098944       0.00225053       0.00430583
O        4.07432908       5.20841308       2.01690613       20       0.00424679      -0.00109888       0.00231111
O        2.11272269       3.04496772       1.73029114       21      -0.00424679      -0.00255092       0.00020390
O        2.11272269       6.53835162       0.28661499       22      -0.00424679       0.00145204       0.00210722
O       -2.36665025       6.21236270       3.82176204       23      -0.00278459      -0.00358485       0.00199471
O        3.55242925       2.02694145       7.54457784       24      -0.00245163      -0.00382029      -0.00199471
O        5.46017613      -1.83745643       3.75579788       25       0.00278459       0.00358485      -0.00199471
O        6.64595514       3.38999886       1.77187383       26      -0.00245163       0.00363762      -0.00231111
O        3.82040153       2.39101480       4.07539495       27      -0.00278459       0.00351990       0.00210722
O        0.72687564       4.52134129       7.25796285       28      -0.00278459       0.00006495      -0.00410193
O        2.36665024      -0.14643503       0.31959707       29       0.00278460      -0.00006495       0.00410193
O       -3.55242925       0.98490741       5.80568610       30       0.00245163      -0.00363762       0.00231111
O        5.26010809       0.81943016       2.05848882       31      -0.00098944      -0.00485422      -0.00020390
O        0.98080320       1.32993854       5.84726878       32       0.00424679       0.00255092      -0.00020390
O        3.55242925      -1.04203404       5.83866818       33      -0.00245163       0.00018267       0.00430583
O        2.16658220      -0.00496556       3.46918289       34      -0.00098944       0.00260369      -0.00410193
O        0.98080320      -2.16344536       7.29094494       35       0.00424679      -0.00145204      -0.00210722
O       -0.72687564       1.98389146       3.50216497       36       0.00278459      -0.00351990      -0.00210722
O       -0.98080320      -0.83350681       5.56065379       37      -0.00424679       0.00109888      -0.00231111
O       -0.45890337       5.41694031       1.73889174       38       0.00245163      -0.00018267      -0.00430583
O        4.02046957       5.18937087       5.52767171       39       0.00098944      -0.00225053      -0.00430583
