40
Lattice="8.369036937032014 6.559379222920398e-10 1.2354671418249611e-14 -2.7896789796290946 7.890403693349396 -1.1361373265502896e-09 -2.78967897870147 -3.9452018460187452 6.833290045312552" Properties=species:S:1:pos:R:3:spacegroup_kinds:I:1:forces:R:3 spacegroup="P 1" unit_cell=conventional occupancy="_JSON {\"0\": {\"In\": 1}, \"1\": {\"In\": 1}, \"2\": {\"In\": 1}, \"3\": {\"In\": 1}, \"4\": {\"In\": 1}, \"5\": {\"In\": 1}, \"6\": {\"In\": 1}, \"7\": {\"In\": 1}, \"8\": {\"In\": 1}, \"9\": {\"In\": 1}, \"10\": {\"In\": 1}, \"11\": {\"In\": 1}, \"12\": {\"In\": 1}, \"13\": {\"In\": 1}, \"14\": {\"In\": 1}, \"15\": {\"In\": 1}, \"16\": {\"O\": 1}, \"17\": {\"O\": 1}, \"18\": {\"O\": 1}, \"19\": {\"O\": 1}, \"20\": {\"O\": 1}, \"21\": {\"O\": 1}, \"22\": {\"O\": 1}, \"23\": {\"O\": 1}, \"24\": {\"O\": 1}, \"25\": {\"O\": 1}, \"26\": {\"O\": 1}, \"27\": {\"O\": 1}, \"28\": {\"O\": 1}, \"29\": {\"O\": 1}, \"30\": {\"O\": 1}, \"31\": {\"O\": 1}, \"32\": {\"O\": 1}, \"33\": {\"O\": 1}, \"34\": {\"O\": 1}, \"35\": {\"O\": 1}, \"36\": {\"O\": 1}, \"37\": {\"O\": 1}, \"38\": {\"O\": 1}, \"39\": {\"O\": 1}}" n_minim_iter=1 energy=-45144.93607446674 stress="-0.11177321521385704 -1.6388505933838041e-12 -1.113237987375109e-12 -1.6388505933838041e-12 -0.11177321521159302 -1.0141730686682454e-13 -1.113237987375109e-12 -1.0141730686682454e-13 -0.11177321521440703" free_energy=-45144.93607446674 pbc="T T T"
In      -4.01136208       2.83646133       5.33703994        0       0.01468831      -0.01038620       0.01798943
In       6.80104105       1.10874052       1.49625010        1      -0.01468831       0.01038620      -0.01798943
In       1.22168309      -0.86386040       4.91289513        2      -0.01468831       0.01038620      -0.01798943
In      -1.39483949      -1.97260092       3.41664502        3      -0.00000000       0.00000000       0.00000000
In      -1.22168310       3.82276179       3.20457262        4       0.01468831      -0.01038620      -0.01798943
In       4.35767486      -2.71402126       5.12496753        5       0.01468831       0.02077241       0.00000000
In      -1.22168310       1.23118058       5.12496753        6       0.01468831       0.02077241      -0.00000000
In      -1.56799588       6.65922311       1.70832251        7      -0.01468831      -0.02077241       0.00000000
In       4.01136207       0.12244006       3.62871742        8      -0.01468831       0.01038620       0.01798943
In      -1.39483949       3.94520185      -0.00000000        9       0.00000000      -0.00000000       0.00000000
In       4.01136207       6.04024283       0.21207240       10      -0.01468831       0.01038620       0.01798943
In      -1.22168310      -2.09504098       6.62121764       11       0.01468831      -0.01038620      -0.01798943
In       4.01136207       2.71402127       1.70832251       12      -0.01468831      -0.02077241       0.00000000
In       1.56799588       4.80906225       1.92039491       13       0.01468831      -0.01038620       0.01798943
In       4.18451847       0.00000000      -0.00000000       14       0.00000000      -0.00000000      -0.00000000
In       1.39483949       1.97260093       3.41664502       15      -0.00000000       0.00000000      -0.00000000
O        0.78824868       3.94068630       3.72111618       16      -0.29876123      -0.29155013       0.28515744
O       -2.00143030       3.22483891       4.97664253       17      -0.29876123       0.39272865       0.10991110
O       -0.42067242       2.10707430       0.07937758       18      -0.00419505       0.18443891       0.47067951
O       -0.78824868      -0.72487848       1.86446866       19       0.29876123       0.10117852       0.39506854
O        3.70755071       4.71590900       1.78509108       20       0.46985520       0.17056842      -0.07561098
O        1.87180724       2.78462120       1.55999751       21      -0.46985520       0.15076524       0.10991110
O        1.87180724       5.87648965       0.22509357       22      -0.46985520       0.01980319      -0.18552208
O       -2.12679284       5.61205843       3.49602260       23      -0.17528902      -0.05752450       0.47067951
O        3.21035140       1.83812755       6.75391246       24       0.00419505      -0.18443891      -0.47067951
O        4.91647182      -1.66685658       3.33726744       25       0.17528902       0.05752450      -0.47067951
O        6.00003038       3.09488108       1.63155394       26       0.00419505       0.49983987       0.07561098
O        3.45256511       2.19421610       3.64173859       27      -0.17528902       0.43638267      -0.18552208
O        0.66288613       4.02933101       6.52881889       28      -0.17528902      -0.37885816      -0.28515744
O        2.12679284      -0.08412916       0.30447115       29       0.17528902       0.37885816       0.28515744
O       -3.21035140       0.85032077       5.20173610       30      -0.00419505      -0.49983987      -0.07561098
O        4.79110927       0.72036294       1.85664751       31       0.29876123      -0.39272865      -0.10991110
O        0.91787174       1.16058065       5.27329253       32       0.46985520      -0.15076524      -0.10991110
O        3.21035140      -0.98780678       5.28111369       33       0.00419505      -0.31540096       0.39506854
O        2.00143029       0.00451555       3.11217386       34       0.29876123       0.29155013      -0.28515744
O        0.91787174      -1.93128780       6.60819647       35       0.46985520      -0.01980319       0.18552208
O       -0.66288614       1.75098575       3.19155145       36       0.17528902      -0.43638267       0.18552208
O       -0.91787174      -0.77070715       5.04819896       37      -0.46985520      -0.17056842       0.07561098
O       -0.42067242       4.93300863       1.55217635       38      -0.00419505       0.31540096      -0.39506854
O        3.57792766       4.67008033       4.96882138       39      -0.29876123      -0.10117852      -0.39506854
40
Lattice="8.369036937032014 6.559379222920399e-10 1.2354671418249607e-14 -2.789678979629095 7.890403693349399 -1.1361373265502896e-09 -2.7896789787014704 -3.945201846018747 6.8332900453125545" Properties=species:S:1:pos:R:3:spacegroup_kinds:I:1:forces:R:3 spacegroup="P 1" unit_cell=conventional occupancy="_JSON {\"0\": {\"In\": 1}, \"1\": {\"In\": 1}, \"2\": {\"In\": 1}, \"3\": {\"In\": 1}, \"4\": {\"In\": 1}, \"5\": {\"In\": 1}, \"6\": {\"In\": 1}, \"7\": {\"In\": 1}, \"8\": {\"In\": 1}, \"9\": {\"In\": 1}, \"10\": {\"In\": 1}, \"11\": {\"In\": 1}, \"12\": {\"In\": 1}, \"13\": {\"In\": 1}, \"14\": {\"In\": 1}, \"15\": {\"In\": 1}, \"16\": {\"O\": 1}, \"17\": {\"O\": 1}, \"18\": {\"O\": 1}, \"19\": {\"O\": 1}, \"20\": {\"O\": 1}, \"21\": {\"O\": 1}, \"22\": {\"O\": 1}, \"23\": {\"O\": 1}, \"24\": {\"O\": 1}, \"25\": {\"O\": 1}, \"26\": {\"O\": 1}, \"27\": {\"O\": 1}, \"28\": {\"O\": 1}, \"29\": {\"O\": 1}, \"30\": {\"O\": 1}, \"31\": {\"O\": 1}, \"32\": {\"O\": 1}, \"33\": {\"O\": 1}, \"34\": {\"O\": 1}, \"35\": {\"O\": 1}, \"36\": {\"O\": 1}, \"37\": {\"O\": 1}, \"38\": {\"O\": 1}, \"39\": {\"O\": 1}}" n_minim_iter=2 energy=-45145.05683697347 stress="-0.09120531564574837 2.9339272505720094e-12 -1.264326458628851e-12 2.9339272505720094e-12 -0.09120531564666559 -3.2361871085496263e-13 -1.264326458628851e-12 -3.2361871085496263e-13 -0.09120531564939358" free_energy=-45145.05683697347 pbc="T T T"
In      -4.01078357       2.83605226       5.33774845        0       0.02151884      -0.01521612       0.02635509
In       6.80046255       1.10914959       1.49554159        1      -0.02151884       0.01521612      -0.02635509
In       1.22110459      -0.86345134       4.91218661        2      -0.02151884       0.01521612      -0.02635509
In      -1.39483949      -1.97260092       3.41664502        3       0.00000000      -0.00000000      -0.00000000
In      -1.22110460       3.82235273       3.20386410        4       0.02151884      -0.01521612      -0.02635509
In       4.35825336      -2.71320314       5.12496753        5       0.02151884       0.03043223      -0.00000000
In      -1.22110459       1.23199871       5.12496753        6       0.02151884       0.03043223       0.00000000
In      -1.56857439       6.65840499       1.70832251        7      -0.02151884      -0.03043223      -0.00000000
In       4.01078357       0.12284913       3.62942594        8      -0.02151884       0.01521612       0.02635509
In      -1.39483949       3.94520185      -0.00000000        9      -0.00000000       0.00000000       0.00000000
In       4.01078357       6.04065190       0.21278092       10      -0.02151884       0.01521612       0.02635509
In      -1.22110459      -2.09545004       6.62050912       11       0.02151884      -0.01521612      -0.02635509
In       4.01078357       2.71320314       1.70832251       12      -0.02151884      -0.03043223      -0.00000000
In       1.56857438       4.80865319       1.92110343       13       0.02151884      -0.01521612       0.02635509
In       4.18451847       0.00000000      -0.00000000       14       0.00000000       0.00000000       0.00000000
In       1.39483949       1.97260093       3.41664502       15       0.00000000      -0.00000000       0.00000000
O        0.77648190       3.92920353       3.73234717       16      -0.26086111       0.12988601      -0.13207802
O       -2.01319708       3.24030663       4.98097141       17      -0.26086111      -0.17932593      -0.04644557
O       -0.42083765       2.11433848       0.09791541       18      -0.13356610      -0.26933709       0.10945833
O       -0.77648190      -0.72089354       1.88002854       19       0.26086111      -0.04943992      -0.17852360
O        3.72605608       4.72262688       1.78211312       20      -0.08211641       0.11263571      -0.28798193
O        1.85330187       2.79055913       1.56432638       21       0.08211641       0.30571752      -0.04644557
O        1.85330187       5.87726960       0.21778673       22       0.08211641      -0.19308181      -0.24153635
O       -2.13369665       5.60979282       3.51456044       23       0.20941141       0.21570636       0.10945833
O        3.21051662       1.83086338       6.73537463       24       0.13356610       0.26933709      -0.10945833
O        4.92337562      -1.66459097       3.31872960       25      -0.20941141      -0.21570636      -0.10945833
O        6.00019560       3.11456740       1.63453190       26       0.13356610      -0.03987485       0.28798193
O        3.44566131       2.21140314       3.63443176       27       0.20941141      -0.01305949      -0.24153635
O        0.65598233       4.01440959       6.51758789       28       0.20941141      -0.20264687       0.13207802
O        2.13369664      -0.06920774       0.31570215       29      -0.20941141       0.20264687      -0.13207802
O       -3.21051663       0.83063445       5.19875814       30      -0.13356610       0.03987485      -0.28798193
O        4.80287606       0.70489522       1.85231863       31       0.26086111       0.17932593       0.04644557
O        0.93637710       1.15464272       5.26896366       32      -0.08211641      -0.30571752       0.04644557
O        3.21051662      -1.00022892       5.29667356       33       0.13356610      -0.22946224      -0.17852360
O        2.01319708       0.01599832       3.10094287       34       0.26086111      -0.12988601       0.13207802
O        0.93637710      -1.93206775       6.61550331       35      -0.08211641       0.19308181       0.24153635
O       -0.65598234       1.73379871       3.19885828       36      -0.20941141       0.01305949       0.24153635
O       -0.93637710      -0.77742503       5.05117692       37       0.08211641      -0.11263571       0.28798193
O       -0.42083765       4.94543077       1.53661648       38      -0.13356610       0.22946224       0.17852360
O        3.56616087       4.66609539       4.95326150       39      -0.26086111       0.04943992       0.17852360
40
Lattice="8.369036937032014 6.5593792229204e-10 1.235467141824959e-14 -2.789678979629096 7.8904036933494 -1.1361373265502896e-09 -2.7896789787014713 -3.9452018460187475 6.833290045312555" Properties=species:S:1:pos:R:3:spacegroup_kinds:I:1:forces:R:3 spacegroup="P 1" unit_cell=conventional occupancy="_JSON {\"0\": {\"In\": 1}, \"1\": {\"In\": 1}, \"2\": {\"In\": 1}, \"3\": {\"In\": 1}, \"4\": {\"In\": 1}, \"5\": {\"In\": 1}, \"6\": {\"In\": 1}, \"7\": {\"In\": 1}, \"8\": {\"In\": 1}, \"9\": {\"In\": 1}, \"10\": {\"In\": 1}, \"11\": {\"In\": 1}, \"12\": {\"In\": 1}, \"13\": {\"In\": 1}, \"14\": {\"In\": 1}, \"15\": {\"In\": 1}, \"16\": {\"O\": 1}, \"17\": {\"O\": 1}, \"18\": {\"O\": 1}, \"19\": {\"O\": 1}, \"20\": {\"O\": 1}, \"21\": {\"O\": 1}, \"22\": {\"O\": 1}, \"23\": {\"O\": 1}, \"24\": {\"O\": 1}, \"25\": {\"O\": 1}, \"26\": {\"O\": 1}, \"27\": {\"O\": 1}, \"28\": {\"O\": 1}, \"29\": {\"O\": 1}, \"30\": {\"O\": 1}, \"31\": {\"O\": 1}, \"32\": {\"O\": 1}, \"33\": {\"O\": 1}, \"34\": {\"O\": 1}, \"35\": {\"O\": 1}, \"36\": {\"O\": 1}, \"37\": {\"O\": 1}, \"38\": {\"O\": 1}, \"39\": {\"O\": 1}}" n_minim_iter=3 energy=-45145.13528511301 stress="-0.07793489797613694 3.383708984387954e-13 -4.034009849773193e-14 3.383708984387954e-13 -0.07793489797951558 3.6627822815658045e-13 -4.034009849773193e-14 3.6627822815658045e-13 -0.07793489798116088" free_energy=-45145.13528511301 pbc="T T T"
In      -4.00893277       2.83474355       5.34001522        0      -0.17979436       0.12713381      -0.22020221
In       6.79861175       1.11045830       1.49327482        1       0.17979436      -0.12713381       0.22020221
In       1.21925379      -0.86214262       4.90991984        2       0.17979436      -0.12713381       0.22020221
In      -1.39483949      -1.97260092       3.41664502        3       0.00000000       0.00000000      -0.00000000
In      -1.21925379       3.82104401       3.20159733        4      -0.17979436       0.12713381       0.22020221
In       4.36010417      -2.71058570       5.12496753        5      -0.17979436      -0.25426762      -0.00000000
In      -1.21925379       1.23461614       5.12496753        6      -0.17979436      -0.25426762       0.00000000
In      -1.57042519       6.65578755       1.70832251        7       0.17979436       0.25426762      -0.00000000
In       4.00893277       0.12415784       3.63169271        8       0.17979436      -0.12713381      -0.22020221
In      -1.39483949       3.94520185      -0.00000000        9       0.00000000      -0.00000000      -0.00000000
In       4.00893277       6.04196061       0.21504768       10       0.17979436      -0.12713381      -0.22020221
In      -1.21925379      -2.09675876       6.61824236       11      -0.17979436       0.12713381       0.22020221
In       4.00893277       2.71058571       1.70832251       12       0.17979436       0.25426762      -0.00000000
In       1.57042519       4.80734447       1.92337020       13      -0.17979436       0.12713381      -0.22020221
In       4.18451847       0.00000000      -0.00000000       14      -0.00000000       0.00000000       0.00000000
In       1.39483949       1.97260093       3.41664502       15      -0.00000000      -0.00000000       0.00000000
O        0.75061349       3.92956387       3.73165907       16       0.00287974       0.11431129       0.08726991
O       -2.03906549       3.23953055       4.98100339       17       0.00287974       0.01842232      -0.14263144
O       -0.42985242       2.10164507       0.11858881       18       0.12610236      -0.06870923       0.00828483
O       -0.75061349      -0.72130928       1.87937242       19      -0.00287974       0.13273361      -0.05536152
O        3.73394719       4.73497841       1.76078361       20       0.01640881      -0.12795036      -0.06364635
O        1.84541077       2.81520679       1.56435837       21      -0.01640881      -0.00885582      -0.14263144
O        1.84541077       5.86497347       0.19642524       22      -0.01640881      -0.11909454       0.07898509
O       -2.12473411       5.62252316       3.53523383       23       0.10681380      -0.09598737       0.00828483
O        3.21953139       1.84355678       6.71470123       24      -0.12610236       0.06870923      -0.00828483
O        4.91441309      -1.67732131       3.29805621       25      -0.10681380       0.09598737      -0.00828483
O        6.00921037       3.12612439       1.65586141       26      -0.12610236      -0.02717974       0.06364635
O        3.45462384       2.22294166       3.61307026       27       0.10681380       0.05516856       0.07898509
O        0.66494487       3.99014073       6.51827599       28       0.10681380       0.04081881      -0.08726991
O        2.12473411      -0.04493888       0.31501405       29      -0.10681380      -0.04081881       0.08726991
O       -3.21953139       0.81907747       5.17742863       30       0.12610236       0.02717974      -0.06364635
O        4.82874447       0.70567130       1.85228665       31      -0.00287974      -0.01842232       0.14263144
O        0.94426821       1.12999506       5.26893167       32       0.01640881       0.00885582       0.14263144
O        3.21953139      -1.02447931       5.29601745       33      -0.12610236      -0.04152949      -0.05536152
O        2.03906549       0.01563798       3.10163097       34      -0.00287974      -0.11431129      -0.08726991
O        0.94426821      -1.91977162       6.63686480       35       0.01640881       0.11909454      -0.07898509
O       -0.66494487       1.72226019       3.22021978       36      -0.10681380      -0.05516856      -0.07898509
O       -0.94426821      -0.78977656       5.07250643       37      -0.01640881       0.12795036       0.06364635
O       -0.42985242       4.96968116       1.53727259       38       0.12610236       0.04152949       0.05536152
O        3.54029247       4.66651113       4.95391762       39       0.00287974      -0.13273361       0.05536152
40
Lattice="8.369036937032014 6.5593792229204e-10 1.2354671418249584e-14 -2.789678979629096 7.8904036933494 -1.1361373265502896e-09 -2.7896789787014713 -3.9452018460187475 6.833290045312555" Properties=species:S:1:pos:R:3:spacegroup_kinds:I:1:forces:R:3 spacegroup="P 1" unit_cell=conventional occupancy="_JSON {\"0\": {\"In\": 1}, \"1\": {\"In\": 1}, \"2\": {\"In\": 1}, \"3\": {\"In\": 1}, \"4\": {\"In\": 1}, \"5\": {\"In\": 1}, \"6\": {\"In\": 1}, \"7\": {\"In\": 1}, \"8\": {\"In\": 1}, \"9\": {\"In\": 1}, \"10\": {\"In\": 1}, \"11\": {\"In\": 1}, \"12\": {\"In\": 1}, \"13\": {\"In\": 1}, \"14\": {\"In\": 1}, \"15\": {\"In\": 1}, \"16\": {\"O\": 1}, \"17\": {\"O\": 1}, \"18\": {\"O\": 1}, \"19\": {\"O\": 1}, \"20\": {\"O\": 1}, \"21\": {\"O\": 1}, \"22\": {\"O\": 1}, \"23\": {\"O\": 1}, \"24\": {\"O\": 1}, \"25\": {\"O\": 1}, \"26\": {\"O\": 1}, \"27\": {\"O\": 1}, \"28\": {\"O\": 1}, \"29\": {\"O\": 1}, \"30\": {\"O\": 1}, \"31\": {\"O\": 1}, \"32\": {\"O\": 1}, \"33\": {\"O\": 1}, \"34\": {\"O\": 1}, \"35\": {\"O\": 1}, \"36\": {\"O\": 1}, \"37\": {\"O\": 1}, \"38\": {\"O\": 1}, \"39\": {\"O\": 1}}" n_minim_iter=4 energy=-45145.14911059313 stress="-0.07760945342348209 -1.8414802558218483e-12 1.0550917301571008e-12 -1.8414802558218483e-12 -0.07760945343202921 2.1458765403751358e-12 1.0550917301571008e-12 2.1458765403751358e-12 -0.07760945342960661" free_energy=-45145.14911059313 pbc="T T T"
In      -4.01122539       2.83636468       5.33720734        0      -0.06700268       0.04737805      -0.08206119
In       6.80090437       1.10883717       1.49608270        1       0.06700268      -0.04737805       0.08206119
In       1.22154641      -0.86376375       4.91272772        2       0.06700268      -0.04737805       0.08206119
In      -1.39483949      -1.97260092       3.41664502        3      -0.00000000       0.00000000       0.00000000
In      -1.22154641       3.82266514       3.20440521        4      -0.06700268       0.04737805       0.08206119
In       4.35781155      -2.71382796       5.12496753        5      -0.06700268      -0.09475610       0.00000000
In      -1.22154641       1.23137388       5.12496753        6      -0.06700268      -0.09475610       0.00000000
In      -1.56813257       6.65902981       1.70832251        7       0.06700268       0.09475610       0.00000000
In       4.01122539       0.12253671       3.62888483        8       0.06700268      -0.04737805      -0.08206119
In      -1.39483949       3.94520185      -0.00000000        9      -0.00000000      -0.00000000       0.00000000
In       4.01122539       6.04033948       0.21223981       10       0.06700268      -0.04737805      -0.08206119
In      -1.22154641      -2.09513763       6.62105023       11      -0.06700268       0.04737805       0.08206119
In       4.01122539       2.71382797       1.70832251       12       0.06700268       0.09475610       0.00000000
In       1.56813257       4.80896560       1.92056232       13      -0.06700268       0.04737805      -0.08206119
In       4.18451847       0.00000000      -0.00000000       14      -0.00000000      -0.00000000      -0.00000000
In       1.39483949       1.97260093       3.41664502       15       0.00000000      -0.00000000      -0.00000000
O        0.74974443       3.93148308       3.73238530       16      -0.00584098       0.00883452       0.00107370
O       -2.03993455       3.23919987       4.97897820       17      -0.00584098      -0.00348741      -0.00818776
O       -0.42864442       2.09984569       0.11910748       18       0.00309431      -0.00980561       0.00275568
O       -0.74974443      -0.71972075       1.87807345       19       0.00584098       0.00534711      -0.00711407
O        3.73392511       4.73368933       1.75896597       20      -0.00134097      -0.00375611      -0.00986975
O        1.84543285       2.81613637       1.56233318       21       0.00134097       0.00666940      -0.00818776
O        1.84543285       5.86275481       0.19663279       22       0.00134097      -0.01042551      -0.00168199
O       -2.12263498       5.62198404       3.53575250       23       0.01027626       0.00035120       0.00275568
O        3.21832340       1.84535616       6.71418256       24      -0.00309431       0.00980561      -0.00275568
O        4.91231396      -1.67678219       3.29753754       25      -0.01027626      -0.00035120      -0.00275568
O        6.00800237       3.12567388       1.65767905       26      -0.00309431      -0.00251632       0.00986975
O        3.45672298       2.22366040       3.61327781       27       0.01027626       0.00221089      -0.00168199
O        0.66704400       3.98996111       6.51754977       28       0.01027626      -0.00256209      -0.00107370
O        2.12263498      -0.04475926       0.31574027       29      -0.01027626       0.00256209       0.00107370
O       -3.21832340       0.81952797       5.17561099       30       0.00309431       0.00251632      -0.00986975
O        4.82961353       0.70600198       1.85431184       31       0.00584098       0.00348741       0.00818776
O        0.94424613       1.12906548       5.27095686       32      -0.00134097      -0.00666940       0.00818776
O        3.21832340      -1.02582818       5.29471847       33      -0.00309431      -0.00728930      -0.00711407
O        2.03993455       0.01371877       3.10090474       34       0.00584098      -0.00883452      -0.00107370
O        0.94424613      -1.91755296       6.63665725       35      -0.00134097       0.01042551       0.00168199
O       -0.66704400       1.72154145       3.22001223       36      -0.01027626      -0.00221089       0.00168199
O       -0.94424613      -0.78848748       5.07432407       37       0.00134097       0.00375611       0.00986975
O       -0.42864442       4.97103003       1.53857156       38       0.00309431       0.00728930       0.00711407
O        3.53942340       4.66492260       4.95521659       39      -0.00584098      -0.00534711       0.00711407
40
Lattice="8.369036937032012 6.559379222920398e-10 1.235467141824958e-14 -2.789678979629095 7.890403693349398 -1.1361373265502894e-09 -2.7896789787014704 -3.9452018460187466 6.8332900453125545" Properties=species:S:1:pos:R:3:spacegroup_kinds:I:1:forces:R:3 spacegroup="P 1" unit_cell=conventional occupancy="_JSON {\"0\": {\"In\": 1}, \"1\": {\"In\": 1}, \"2\": {\"In\": 1}, \"3\": {\"In\": 1}, \"4\": {\"In\": 1}, \"5\": {\"In\": 1}, \"6\": {\"In\": 1}, \"7\": {\"In\": 1}, \"8\": {\"In\": 1}, \"9\": {\"In\": 1}, \"10\": {\"In\": 1}, \"11\": {\"In\": 1}, \"12\": {\"In\": 1}, \"13\": {\"In\": 1}, \"14\": {\"In\": 1}, \"15\": {\"In\": 1}, \"16\": {\"O\": 1}, \"17\": {\"O\": 1}, \"18\": {\"O\": 1}, \"19\": {\"O\": 1}, \"20\": {\"O\": 1}, \"21\": {\"O\": 1}, \"22\": {\"O\": 1}, \"23\": {\"O\": 1}, \"24\": {\"O\": 1}, \"25\": {\"O\": 1}, \"26\": {\"O\": 1}, \"27\": {\"O\": 1}, \"28\": {\"O\": 1}, \"29\": {\"O\": 1}, \"30\": {\"O\": 1}, \"31\": {\"O\": 1}, \"32\": {\"O\": 1}, \"33\": {\"O\": 1}, \"34\": {\"O\": 1}, \"35\": {\"O\": 1}, \"36\": {\"O\": 1}, \"37\": {\"O\": 1}, \"38\": {\"O\": 1}, \"39\": {\"O\": 1}}" n_minim_iter=5 energy=-45145.151189185635 stress="-0.07694512146467712 -6.811616589114304e-13 1.9995236619476453e-12 -6.811616589114304e-13 -0.07694512147081618 -9.143791335281658e-13 1.9995236619476453e-12 -9.143791335281658e-13 -0.0769451214696566" free_energy=-45145.151189185635 pbc="T T T"
In      -4.01258783       2.83732807       5.33553870        0      -0.01452097       0.01026788      -0.01778449
In       6.80226681       1.10787378       1.49775134        1       0.01452097      -0.01026788       0.01778449
In       1.22290885      -0.86472714       4.91439637        2       0.01452097      -0.01026788       0.01778449
In      -1.39483949      -1.97260092       3.41664502        3       0.00000000      -0.00000000      -0.00000000
In      -1.22290885       3.82362853       3.20607385        4      -0.01452097       0.01026788       0.01778449
In       4.35644910      -2.71575474       5.12496753        5      -0.01452097      -0.02053576       0.00000000
In      -1.22290885       1.22944710       5.12496753        6      -0.01452097      -0.02053576      -0.00000000
In      -1.56677013       6.66095659       1.70832251        7       0.01452097       0.02053576       0.00000000
In       4.01258783       0.12157332       3.62721619        8       0.01452097      -0.01026788      -0.01778449
In      -1.39483949       3.94520185      -0.00000000        9       0.00000000      -0.00000000      -0.00000000
In       4.01258783       6.03937609       0.21057116       10       0.01452097      -0.01026788      -0.01778449
In      -1.22290885      -2.09417424       6.62271888       11      -0.01452097       0.01026788       0.01778449
In       4.01258783       2.71575475       1.70832251       12       0.01452097       0.02053576       0.00000000
In       1.56677012       4.80992899       1.91889367       13      -0.01452097       0.01026788      -0.01778449
In       4.18451847       0.00000000      -0.00000000       14      -0.00000000      -0.00000000       0.00000000
In       1.39483949       1.97260093       3.41664502       15      -0.00000000      -0.00000000       0.00000000
O        0.74853255       3.93183465       3.73234129       16      -0.00214367      -0.01960690      -0.01896673
O       -2.04114642       3.23898597       4.97869573       17      -0.00214367      -0.00662222       0.02646344
O       -0.42891858       2.09896873       0.11997347       18      -0.02544361       0.00985333      -0.00207304
O       -0.74853256      -0.71958307       1.87774698       19       0.00214367      -0.02622912       0.00749671
O        3.73412740       4.73405164       1.75777350       20      -0.00552893       0.02503225       0.00956975
O        1.84523055       2.81735024       1.56205071       21       0.00552893       0.00422848       0.02646344
O        1.84523055       5.86190325       0.19572279       22       0.00552893       0.02080377      -0.01689369
O       -2.12189956       5.62253484       3.53661850       23      -0.01777101       0.02070403      -0.00207304
O        3.21859755       1.84623312       6.71331657       24       0.02544361      -0.00985333       0.00207304
O        4.91157853      -1.67733299       3.29667154       25       0.01777101      -0.02070403       0.00207304
O        6.00827653       3.12598537       1.65887152       26       0.02544361       0.00313136      -0.00956975
O        3.45745840       2.22413497       3.61236781       27      -0.01777101      -0.01214732      -0.01689369
O        0.66777942       3.98893574       6.51759377       28      -0.01777101      -0.00855671       0.01896673
O        2.12189955      -0.04373389       0.31569627       29       0.01777101       0.00855671      -0.01896673
O       -3.21859756       0.81921648       5.17441852       30      -0.02544361      -0.00313136       0.00956975
O        4.83082540       0.70621588       1.85459431       31       0.00214367       0.00662222      -0.02646344
O        0.94444842       1.12785161       5.27123933       32      -0.00552893      -0.00422848      -0.02646344
O        3.21859755      -1.02701663       5.29439200       33       0.02544361       0.00672197       0.00749671
O        2.04114642       0.01336720       3.10094875       34       0.00214367       0.01960690       0.01896673
O        0.94444842      -1.91670140       6.63756725       35      -0.00552893      -0.02080377       0.01689369
O       -0.66777943       1.72106688       3.22092223       36       0.01777101       0.01214732       0.01689369
O       -0.94444842      -0.78884979       5.07551654       37       0.00552893      -0.02503225      -0.00956975
O       -0.42891858       4.97221849       1.53889804       38      -0.02544361      -0.00672197      -0.00749671
O        3.53821153       4.66478492       4.95554306       39      -0.00214367       0.02622912      -0.00749671
40