40
Lattice="8.452732858691286 6.624993664338247e-10 9.515025220086137e-15 -2.8175776201883735 7.969312965031113 -1.147498101747171e-09 -2.8175776192514683 -3.984656481853045 6.901627479190625" Properties=species:S:1:pos:R:3:spacegroup_kinds:I:1:forces:R:3 spacegroup="P 1" unit_cell=conventional occupancy="_JSON {\"0\": {\"In\": 1}, \"1\": {\"In\": 1}, \"2\": {\"In\": 1}, \"3\": {\"In\": 1}, \"4\": {\"In\": 1}, \"5\": {\"In\": 1}, \"6\": {\"In\": 1}, \"7\": {\"In\": 1}, \"8\": {\"In\": 1}, \"9\": {\"In\": 1}, \"10\": {\"In\": 1}, \"11\": {\"In\": 1}, \"12\": {\"In\": 1}, \"13\": {\"In\": 1}, \"14\": {\"In\": 1}, \"15\": {\"In\": 1}, \"16\": {\"O\": 1}, \"17\": {\"O\": 1}, \"18\": {\"O\": 1}, \"19\": {\"O\": 1}, \"20\": {\"O\": 1}, \"21\": {\"O\": 1}, \"22\": {\"O\": 1}, \"23\": {\"O\": 1}, \"24\": {\"O\": 1}, \"25\": {\"O\": 1}, \"26\": {\"O\": 1}, \"27\": {\"O\": 1}, \"28\": {\"O\": 1}, \"29\": {\"O\": 1}, \"30\": {\"O\": 1}, \"31\": {\"O\": 1}, \"32\": {\"O\": 1}, \"33\": {\"O\": 1}, \"34\": {\"O\": 1}, \"35\": {\"O\": 1}, \"36\": {\"O\": 1}, \"37\": {\"O\": 1}, \"38\": {\"O\": 1}, \"39\": {\"O\": 1}}" n_minim_iter=6 energy=-45146.30228296781 stress="-0.08806774618295758 -1.130672965853689e-12 -1.347443978229463e-12 -1.130672965853689e-12 -0.08806774618022976 -2.3359709212985347e-12 -1.347443978229463e-12 -2.3359709212985347e-12 -0.08806774617555654" free_energy=-45146.30228296781 pbc="T T T"
In      -4.05147836       2.86482782       5.39041388        0       0.00273586      -0.00193455       0.00335073
In       6.86905598       1.11982866       1.51121360        1      -0.00273586       0.00193455      -0.00335073
In       1.23390074      -0.87249958       4.96202734        2      -0.00273586       0.00193455      -0.00335073
In      -1.40878881      -1.99232824       3.45081374        3       0.00000000      -0.00000000      -0.00000000
In      -1.23390074       3.86099194       3.23662047        4       0.00273586      -0.00193455      -0.00335073
In       4.40125450      -2.74116328       5.17622061        5       0.00273586       0.00386909      -0.00000000
In      -1.23390074       1.24349321       5.17622061        6       0.00273586       0.00386909       0.00000000
In      -1.58367688       6.72581976       1.72540687        7      -0.00273586      -0.00386909       0.00000000
In       4.05147836       0.12366454       3.66500701        8      -0.00273586       0.00193455       0.00335073
In      -1.40878881       3.98465648      -0.00000000        9       0.00000000       0.00000000      -0.00000000
In       4.05147836       6.10064927       0.21419327       10      -0.00273586       0.00193455       0.00335073
In      -1.23390074      -2.11599278       6.68743421       11       0.00273586      -0.00193455      -0.00335073
In       4.05147836       2.74116328       1.72540687       12      -0.00273586      -0.00386909       0.00000000
In       1.58367688       4.85715606       1.93960014       13       0.00273586      -0.00193455       0.00335073
In       4.22636643       0.00000000      -0.00000000       14      -0.00000000      -0.00000000      -0.00000000
In       1.40878881       1.99232824       3.45081374       15      -0.00000000      -0.00000000      -0.00000000
O        0.79613169       3.98009578       3.75832981       16       0.00080538      -0.00617593      -0.00095818
O       -2.02144593       3.25708944       5.02641226       17       0.00080538       0.00225816       0.00582761
O       -0.42487943       2.12814644       0.08017141       18      -0.00342525       0.00524967       0.00064616
O       -0.79613169      -0.73212774       1.88311459       19      -0.00080538      -0.00391778       0.00486943
O        3.74462868       4.76307122       1.80294317       20       0.00186055       0.00429083       0.00422327
O        1.89052655       2.81246926       1.57559852       21      -0.00186055      -0.00151204       0.00582761
O        1.89052655       5.93525844       0.22734465       22      -0.00186055       0.00580288      -0.00160434
O       -2.14806218       5.66818274       3.53098515       23      -0.00609119       0.00147947       0.00064616
O        3.24245704       1.85651004       6.82145606       24       0.00342525      -0.00524967      -0.00064616
O        4.96563980      -1.68352626       3.37064232       25       0.00609119      -0.00147947      -0.00064616
O        6.06003466       3.12583195       1.64787056       26       0.00342525       0.00318442      -0.00422327
O        3.48709305       2.21615972       3.67815839       27      -0.00609119      -0.00018015      -0.00160434
O        0.66951544       4.06962700       6.59411141       28      -0.00609119      -0.00129932       0.00095818
O        2.14806218      -0.08497051       0.30751607       29       0.00609119       0.00129932      -0.00095818
O       -3.24245705       0.85882454       5.25375691       30      -0.00342525      -0.00318442       0.00422327
O        4.83902354       0.72756704       1.87521522       31      -0.00080538      -0.00225816      -0.00582761
O        0.92705106       1.17218723       5.32602896       32       0.00186055       0.00151204      -0.00582761
O        3.24245704      -0.99768550       5.33392833       33       0.00342525       0.00206525       0.00486943
O        2.02144592       0.00456070       3.14329767       34      -0.00080538       0.00617593       0.00095818
O        0.92705106      -1.95060195       6.67428282       35       0.00186055      -0.00580288       0.00160434
O       -0.66951544       1.76849677       3.22346908       36       0.00609119       0.00018015       0.00160434
O       -0.92705106      -0.77841473       5.09868430       37      -0.00186055      -0.00429083      -0.00422327
O       -0.42487943       4.98234199       1.56769915       38      -0.00342525      -0.00206525      -0.00486943
O        3.61370931       4.71678423       5.01851289       39       0.00080538       0.00391778      -0.00486943
