40
Lattice="9.280577659911732 7.273830091784955e-10 9.281452344689563e-15 -3.0935258873230254 8.749812528626823 -1.2598786673353755e-09 -3.0935258862943584 -4.374906263586019 7.577559928982099" Properties=species:S:1:pos:R:3:spacegroup_kinds:I:1:forces:R:3 spacegroup="P 1" unit_cell=conventional occupancy="_JSON {\"0\": {\"In\": 1}, \"1\": {\"In\": 1}, \"2\": {\"In\": 1}, \"3\": {\"In\": 1}, \"4\": {\"In\": 1}, \"5\": {\"In\": 1}, \"6\": {\"In\": 1}, \"7\": {\"In\": 1}, \"8\": {\"In\": 1}, \"9\": {\"In\": 1}, \"10\": {\"In\": 1}, \"11\": {\"In\": 1}, \"12\": {\"In\": 1}, \"13\": {\"In\": 1}, \"14\": {\"In\": 1}, \"15\": {\"In\": 1}, \"16\": {\"O\": 1}, \"17\": {\"O\": 1}, \"18\": {\"O\": 1}, \"19\": {\"O\": 1}, \"20\": {\"O\": 1}, \"21\": {\"O\": 1}, \"22\": {\"O\": 1}, \"23\": {\"O\": 1}, \"24\": {\"O\": 1}, \"25\": {\"O\": 1}, \"26\": {\"O\": 1}, \"27\": {\"O\": 1}, \"28\": {\"O\": 1}, \"29\": {\"O\": 1}, \"30\": {\"O\": 1}, \"31\": {\"O\": 1}, \"32\": {\"O\": 1}, \"33\": {\"O\": 1}, \"34\": {\"O\": 1}, \"35\": {\"O\": 1}, \"36\": {\"O\": 1}, \"37\": {\"O\": 1}, \"38\": {\"O\": 1}, \"39\": {\"O\": 1}}" n_minim_iter=5 energy=-45149.21979465411 stress="0.031306835033223984 -1.060093353701683e-12 2.0007642569899558e-12 -1.060093353701683e-12 0.0313068350318425 5.088265597619805e-13 2.0007642569899558e-12 5.088265597619805e-13 0.03130683503449147" free_energy=-45149.21979465411 pbc="T T T"
In      -4.43367284       3.13508013       5.93622183        0       0.00215781      -0.00152580       0.00264276
In       7.52719872       1.23982614       1.64133810        1      -0.00215781       0.00152580      -0.00264276
In       1.34014695      -0.94762699       5.43011806        2      -0.00215781       0.00152580      -0.00264277
In      -1.54676294      -2.18745313       3.78877996        3      -0.00000000       0.00000000      -0.00000000
In      -1.34014695       4.22880669       3.53572808        4       0.00215781      -0.00152580      -0.00264277
In       4.84690483      -2.98898055       5.68316994        5       0.00215781       0.00305160      -0.00000000
In      -1.34014695       1.38592571       5.68316994        6       0.00215781       0.00305160      -0.00000000
In      -1.75337894       7.36388682       1.89438998        7      -0.00215781      -0.00305160       0.00000000
In       4.43367283       0.14609957       4.04183184        8      -0.00215781       0.00152580       0.00264277
In      -1.54676295       4.37490627      -0.00000000        9      -0.00000000      -0.00000000      -0.00000000
In       4.43367283       6.70845897       0.25305188       10      -0.00215781       0.00152580       0.00264276
In      -1.34014695      -2.33355270       7.32450804       11       0.00215781      -0.00152580      -0.00264277
In       4.43367283       2.98898056       1.89438998       12      -0.00215781      -0.00305160      -0.00000000
In       1.75337894       5.32253326       2.14744186       13       0.00215781      -0.00152580       0.00264277
In       4.64028883       0.00000000      -0.00000000       14      -0.00000000      -0.00000000      -0.00000000
In       1.54676294       2.18745313       3.78877996       15      -0.00000000       0.00000000       0.00000000
O        0.92110663       4.37655845       4.11361806       16      -0.00071764      -0.00157832       0.00017925
O       -2.17241925       3.56167166       5.51932006       17      -0.00071764       0.00094440       0.00127724
O       -0.45813171       2.34948731       0.04132501       18      -0.00083688       0.00102872       0.00113120
O       -0.92110664      -0.81158243       2.05537820       19       0.00071764      -0.00063393       0.00145650
O        4.08211599       5.21034770       2.01405319       20       0.00112960       0.00128702       0.00032529
O        2.10493578       3.04840576       1.73054010       21      -0.00112960       0.00036180       0.00127724
O        2.10493578       6.53684821       0.28351308       22      -0.00112960       0.00092523      -0.00095195
O       -2.36782845       6.21112768       3.83010498       23      -0.00124884       0.00044612       0.00113120
O        3.55165759       2.02541896       7.53623491       24       0.00083688      -0.00102872      -0.00113120
O        5.46135433      -1.83622141       3.74745495       25       0.00124884      -0.00044612      -0.00113120
O        6.64518348       3.39798530       1.77472677       26       0.00083688       0.00149401      -0.00032529
O        3.81922332       2.39885751       4.07229305       27      -0.00124884       0.00075659      -0.00095195
O        0.72569744       4.51473361       7.25272182       28      -0.00124885      -0.00120271      -0.00017925
O        2.36782845      -0.13982735       0.32483810       29       0.00124885       0.00120271       0.00017925
O       -3.55165759       0.97692096       5.80283315       30      -0.00083688      -0.00149401       0.00032529
O        5.26594513       0.81323461       2.05823986       31       0.00071764      -0.00094440      -0.00127724
O        0.98859010       1.32650051       5.84701982       32       0.00112960      -0.00036180      -0.00127724
O        3.55165759      -1.04849799       5.84415817       33       0.00083688      -0.00046529       0.00145649
O        2.17241925      -0.00165218       3.46394186       34       0.00071764       0.00157832      -0.00017925
O        0.98859010      -2.16194194       7.29404684       35       0.00112960      -0.00092523       0.00095195
O       -0.72569744       1.97604876       3.50526687       36       0.00124884      -0.00075659       0.00095195
O       -0.98859011      -0.83544143       5.56350674       37      -0.00112960      -0.00128702      -0.00032530
O       -0.45813171       5.42340426       1.73340176       38      -0.00083688       0.00046529      -0.00145649
O        4.01463252       5.18648869       5.52218172       39      -0.00071764       0.00063393      -0.00145650
