40
Lattice="8.369036937032016 6.559379222920401e-10 1.2354671418249573e-14 -2.7896789796290964 7.890403693349402 -1.13613732655029e-09 -2.7896789787014717 -3.9452018460187483 6.833290045312557" Properties=species:S:1:pos:R:3:spacegroup_kinds:I:1:forces:R:3 spacegroup="P 1" unit_cell=conventional occupancy="_JSON {\"0\": {\"In\": 1}, \"1\": {\"In\": 1}, \"2\": {\"In\": 1}, \"3\": {\"In\": 1}, \"4\": {\"In\": 1}, \"5\": {\"In\": 1}, \"6\": {\"In\": 1}, \"7\": {\"In\": 1}, \"8\": {\"In\": 1}, \"9\": {\"In\": 1}, \"10\": {\"In\": 1}, \"11\": {\"In\": 1}, \"12\": {\"In\": 1}, \"13\": {\"In\": 1}, \"14\": {\"In\": 1}, \"15\": {\"In\": 1}, \"16\": {\"O\": 1}, \"17\": {\"O\": 1}, \"18\": {\"O\": 1}, \"19\": {\"O\": 1}, \"20\": {\"O\": 1}, \"21\": {\"O\": 1}, \"22\": {\"O\": 1}, \"23\": {\"O\": 1}, \"24\": {\"O\": 1}, \"25\": {\"O\": 1}, \"26\": {\"O\": 1}, \"27\": {\"O\": 1}, \"28\": {\"O\": 1}, \"29\": {\"O\": 1}, \"30\": {\"O\": 1}, \"31\": {\"O\": 1}, \"32\": {\"O\": 1}, \"33\": {\"O\": 1}, \"34\": {\"O\": 1}, \"35\": {\"O\": 1}, \"36\": {\"O\": 1}, \"37\": {\"O\": 1}, \"38\": {\"O\": 1}, \"39\": {\"O\": 1}}" n_minim_iter=7 energy=-45145.15163244359 stress="-0.07661642614655263 1.358535286433804e-12 -1.529797805085938e-12 1.358535286433804e-12 -0.07661642615105332 -9.068798352209154e-13 -1.529797805085938e-12 -9.068798352209154e-13 -0.0766164261500238" free_energy=-45145.15163244359 pbc="T T T"
In      -4.01327350       2.83781291       5.33469893        0       0.00119261      -0.00084330       0.00146064
In       6.80295248       1.10738894       1.49859111        1      -0.00119261       0.00084330      -0.00146064
In       1.22359452      -0.86521198       4.91523614        2      -0.00119261       0.00084330      -0.00146064
In      -1.39483949      -1.97260092       3.41664502        3      -0.00000000       0.00000000       0.00000000
In      -1.22359452       3.82411337       3.20691363        4       0.00119261      -0.00084330      -0.00146064
In       4.35576343      -2.71672443       5.12496753        5       0.00119261       0.00168661       0.00000000
In      -1.22359452       1.22847742       5.12496753        6       0.00119261       0.00168661       0.00000000
In      -1.56608446       6.66192628       1.70832251        7      -0.00119261      -0.00168661       0.00000000
In       4.01327350       0.12108848       3.62637641        8      -0.00119261       0.00084330       0.00146064
In      -1.39483949       3.94520185      -0.00000000        9      -0.00000000      -0.00000000       0.00000000
In       4.01327350       6.03889125       0.20973139       10      -0.00119261       0.00084330       0.00146064
In      -1.22359452      -2.09368940       6.62355865       11       0.00119261      -0.00084330      -0.00146064
In       4.01327350       2.71672443       1.70832251       12      -0.00119261      -0.00168661       0.00000000
In       1.56608445       4.81041383       1.91805390       13       0.00119261      -0.00084330       0.00146064
In       4.18451847       0.00000000      -0.00000000       14       0.00000000      -0.00000000       0.00000000
In       1.39483949       1.97260093       3.41664502       15       0.00000000       0.00000000      -0.00000000
O        0.74814081       3.93129619       3.73180933       16       0.00005021      -0.00186537      -0.00141069
O       -2.04153817       3.23879452       4.97942803       17       0.00005021      -0.00028901       0.00232080
O       -0.42973733       2.09907921       0.12018279       18      -0.00201443       0.00117092      -0.00020786
O       -0.74814081      -0.72031299       1.87794732       19      -0.00005021      -0.00215438       0.00091011
O        3.73407747       4.73490241       1.75776452       20      -0.00028922       0.00203437       0.00111797
O        1.84528048       2.81778340       1.56278301       21       0.00028922       0.00004899       0.00232080
O        1.84528048       5.86232086       0.19498151       22       0.00028922       0.00198538      -0.00120283
O       -2.12227664       5.62326994       3.53682782       23      -0.00177543       0.00150892      -0.00020786
O        3.21941631       1.84612264       6.71310725       24       0.00201443      -0.00117092       0.00020786
O        4.91195562      -1.67806809       3.29646222       25       0.00177543      -0.00150892       0.00020786
O        6.00909529       3.12622189       1.65888050       26       0.00201443       0.00040545      -0.00111797
O        3.45708132       2.22394870       3.61162653       27      -0.00177543      -0.00093447      -0.00120283
O        0.66740234       3.98838691       6.51812573       28      -0.00177543      -0.00057445       0.00141069
O        2.12227664      -0.04318506       0.31516431       29       0.00177543       0.00057445      -0.00141069
O       -3.21941631       0.81897996       5.17440954       30      -0.00201443      -0.00040545       0.00111797
O        4.83121715       0.70640733       1.85386201       31      -0.00005021       0.00028901      -0.00232080
O        0.94439849       1.12741845       5.27050703       32      -0.00028922      -0.00004899      -0.00232080
O        3.21941631      -1.02714267       5.29459234       33       0.00201443       0.00076547       0.00091011
O        2.04153817       0.01390566       3.10148071       34      -0.00005021       0.00186537       0.00141069
O        0.94439849      -1.91711901       6.63830853       35      -0.00028922      -0.00198538       0.00120283
O       -0.66740234       1.72125316       3.22166351       36       0.00177543       0.00093447       0.00120283
O       -0.94439850      -0.78970056       5.07552552       37       0.00028922      -0.00203437      -0.00111797
O       -0.42973733       4.97234452       1.53869770       38      -0.00201443      -0.00076547      -0.00091011
O        3.53781979       4.66551484       4.95534272       39       0.00005021       0.00215438      -0.00091011
