40
Lattice="9.211317036463875 7.219526420250403e-10 7.23044865548389e-15 -3.0704390128352905 8.684512986616388 -1.2504727685825558e-09 -3.0704390118143015 -4.34225649258623 7.521008866739305" Properties=species:S:1:pos:R:3:spacegroup_kinds:I:1:forces:R:3 spacegroup="P 1" unit_cell=conventional occupancy="_JSON {\"0\": {\"In\": 1}, \"1\": {\"In\": 1}, \"2\": {\"In\": 1}, \"3\": {\"In\": 1}, \"4\": {\"In\": 1}, \"5\": {\"In\": 1}, \"6\": {\"In\": 1}, \"7\": {\"In\": 1}, \"8\": {\"In\": 1}, \"9\": {\"In\": 1}, \"10\": {\"In\": 1}, \"11\": {\"In\": 1}, \"12\": {\"In\": 1}, \"13\": {\"In\": 1}, \"14\": {\"In\": 1}, \"15\": {\"In\": 1}, \"16\": {\"O\": 1}, \"17\": {\"O\": 1}, \"18\": {\"O\": 1}, \"19\": {\"O\": 1}, \"20\": {\"O\": 1}, \"21\": {\"O\": 1}, \"22\": {\"O\": 1}, \"23\": {\"O\": 1}, \"24\": {\"O\": 1}, \"25\": {\"O\": 1}, \"26\": {\"O\": 1}, \"27\": {\"O\": 1}, \"28\": {\"O\": 1}, \"29\": {\"O\": 1}, \"30\": {\"O\": 1}, \"31\": {\"O\": 1}, \"32\": {\"O\": 1}, \"33\": {\"O\": 1}, \"34\": {\"O\": 1}, \"35\": {\"O\": 1}, \"36\": {\"O\": 1}, \"37\": {\"O\": 1}, \"38\": {\"O\": 1}, \"39\": {\"O\": 1}}" n_minim_iter=3 energy=-45149.68310997442 stress="0.03437477493797004 -6.016030208178e-13 -3.422042406632942e-12 -6.016030208178e-13 0.03437477493614677 9.91796156749767e-13 -3.422042406632942e-12 9.91796156749767e-13 0.03437477493676093" free_energy=-45149.68310997442 pbc="T T T"
In      -4.40273431       3.11320329       5.88928703        0      -0.00155638       0.00110053      -0.00190617
In       7.47317332       1.22905321       1.63172183        1       0.00155638      -0.00110053       0.00190617
In       1.33229529      -0.94207503       5.39222626        2       0.00155638      -0.00110053       0.00190617
In      -1.53521951      -2.17112824       3.76050443        3      -0.00000000      -0.00000000      -0.00000000
In      -1.33229530       4.19876741       3.51197404        4      -0.00155638       0.00110053       0.00190617
In       4.80858273      -2.96971419       5.64075665        5      -0.00155638      -0.00220106       0.00000000
In      -1.33229530       1.37254230       5.64075665        6      -0.00155638      -0.00220106       0.00000000
In      -1.73814372       7.31197069       1.88025221        7       0.00155638       0.00220106       0.00000000
In       4.40273430       0.14348909       4.00903482        8       0.00155638      -0.00110053      -0.00190617
In      -1.53521951       4.34225649      -0.00000000        9      -0.00000000      -0.00000000      -0.00000000
In       4.40273430       6.65687383       0.24853038       10       0.00155638      -0.00110053      -0.00190617
In      -1.33229530      -2.31461733       7.27247848       11      -0.00155638       0.00110053       0.00190617
In       4.40273430       2.96971420       1.88025221       12       0.00155638       0.00220106       0.00000000
In       1.73814372       5.28433153       2.12878260       13      -0.00155638       0.00110053      -0.00190617
In       4.60565852       0.00000000      -0.00000000       14       0.00000000      -0.00000000      -0.00000000
In       1.53521950       2.17112825       3.76050443       15       0.00000000      -0.00000000       0.00000000
O        0.91013831       4.34201231       4.08438409       16       0.00379380      -0.00577378       0.00485644
O       -2.16030071       3.53730247       5.47902829       17       0.00379380       0.00709270       0.00257202
O       -0.45576871       2.33201634       0.04563624       18       0.00250808       0.00800184       0.00099734
O       -0.91013831      -0.80519820       2.04240351       19      -0.00379380       0.00131891       0.00742847
O        4.05510099       5.17380279       1.99676727       20       0.00542246      -0.00074310       0.00643112
O        2.08577704       3.02877846       1.71852385       21      -0.00542246      -0.00594106       0.00257202
O        2.08577704       6.48728083       0.27824341       22      -0.00542246       0.00519797       0.00385910
O       -2.35056900       6.16574882       3.80614067       23      -0.00670818      -0.00503192       0.00099734
O        3.52620772       2.01024016       7.47537262       24      -0.00250808      -0.00800184      -0.00099734
O        5.42100801      -1.82349233       3.71486819       25       0.00670818       0.00503192      -0.00099734
O        6.59664673       3.37665856       1.76373716       26      -0.00250808       0.00486464      -0.00643112
O        3.79030903       2.38446835       4.03874785       27      -0.00670818       0.00337969       0.00385910
O        0.71987002       4.47655231       7.19712921       28      -0.00670818       0.00165224      -0.00485644
O        2.35056899      -0.13429582       0.32387965       29       0.00670818      -0.00165224       0.00485644
O       -3.52620772       0.96559794       5.75727170       30       0.00250808      -0.00486464       0.00643112
O        5.23073971       0.80495402       2.04198057       31      -0.00379380      -0.00709270      -0.00257202
O        0.98466197       1.31347804       5.80248501       32       0.00542246       0.00594106      -0.00257202
O        3.52620772      -1.04464222       5.80290794       33      -0.00250808       0.00313719       0.00742847
O        2.16030070       0.00024418       3.43662477       34      -0.00379380       0.00577378      -0.00485644
O        0.98466197      -2.14502433       7.24276545       35       0.00542246      -0.00519797      -0.00385910
O       -0.71987002       1.95778815       3.48226101       36       0.00670818      -0.00337969      -0.00385910
O       -0.98466198      -0.83154630       5.52424159       37      -0.00542246       0.00074310      -0.00643112
O       -0.45576871       5.38689871       1.71810092       38       0.00250808      -0.00313719      -0.00742847
O        3.98057732       5.14745470       5.47860535       39       0.00379380      -0.00131891      -0.00742847
