40
Lattice="9.416079660180754 7.380003341479886e-10 1.2807092244625231e-14 -3.138693220756046 8.877565039629378 -1.2782765241894058e-09 -3.138693219712364 -4.438782519076673 7.688196848919823" Properties=species:S:1:pos:R:3:spacegroup_kinds:I:1:forces:R:3 spacegroup="P 1" unit_cell=conventional occupancy="_JSON {\"0\": {\"In\": 1}, \"1\": {\"In\": 1}, \"2\": {\"In\": 1}, \"3\": {\"In\": 1}, \"4\": {\"In\": 1}, \"5\": {\"In\": 1}, \"6\": {\"In\": 1}, \"7\": {\"In\": 1}, \"8\": {\"In\": 1}, \"9\": {\"In\": 1}, \"10\": {\"In\": 1}, \"11\": {\"In\": 1}, \"12\": {\"In\": 1}, \"13\": {\"In\": 1}, \"14\": {\"In\": 1}, \"15\": {\"In\": 1}, \"16\": {\"O\": 1}, \"17\": {\"O\": 1}, \"18\": {\"O\": 1}, \"19\": {\"O\": 1}, \"20\": {\"O\": 1}, \"21\": {\"O\": 1}, \"22\": {\"O\": 1}, \"23\": {\"O\": 1}, \"24\": {\"O\": 1}, \"25\": {\"O\": 1}, \"26\": {\"O\": 1}, \"27\": {\"O\": 1}, \"28\": {\"O\": 1}, \"29\": {\"O\": 1}, \"30\": {\"O\": 1}, \"31\": {\"O\": 1}, \"32\": {\"O\": 1}, \"33\": {\"O\": 1}, \"34\": {\"O\": 1}, \"35\": {\"O\": 1}, \"36\": {\"O\": 1}, \"37\": {\"O\": 1}, \"38\": {\"O\": 1}, \"39\": {\"O\": 1}}" n_minim_iter=1 energy=-45148.18732772501 stress="0.023634273007255027 4.1228891455713253e-13 1.1124158081687283e-12 4.1228891455713253e-13 0.023634273008583326 -1.286574953105769e-12 1.1124158081687283e-12 -1.286574953105769e-12 0.023634273009850375" free_energy=-45148.18732772501 pbc="T T T"
In      -4.50685167       3.18682538       6.01255181        0      -0.08170595       0.05777483      -0.10006895
In       7.64554488       1.25195715       1.67564504        1       0.08170595      -0.05777483       0.10006895
In       1.36815844      -0.96743411       5.51974346        2       0.08170595      -0.05777483       0.10006895
In      -1.56934661      -2.21939126       3.84409842        3      -0.00000000       0.00000000       0.00000000
In      -1.36815845       4.29652101       3.59769425        4      -0.08170595       0.05777483       0.10006895
In       4.90922799      -3.04456386       5.76614763        5      -0.08170595      -0.11554967       0.00000000
In      -1.36815845       1.39421866       5.76614763        6      -0.08170595      -0.11554967       0.00000000
In      -1.77053478       7.48334638       1.92204921        7       0.08170595       0.11554967      -0.00000000
In       4.50685166       0.14226152       4.09050259        8       0.08170595      -0.05777483      -0.10006895
In      -1.56934661       4.43878252      -0.00000000        9       0.00000000      -0.00000000      -0.00000000
In       4.50685166       6.80043530       0.24640417       10       0.08170595      -0.05777483      -0.10006895
In      -1.36815845      -2.36165277       7.44179267       11      -0.08170595       0.05777483       0.10006895
In       4.50685166       3.04456386       1.92204921       12       0.08170595       0.11554967       0.00000000
In       1.77053477       5.40621664       2.16845338       13      -0.08170595       0.05777483      -0.10006895
In       4.70803983       0.00000000      -0.00000000       14       0.00000000       0.00000000      -0.00000000
In       1.56934661       2.21939126       3.84409842       15      -0.00000000       0.00000000      -0.00000000
O        0.94316037       4.44697000       4.15890616       16      -0.00148149       0.04465808      -0.05891276
O       -2.19553285       3.59762465       5.60165319       17      -0.00148149      -0.07334898      -0.00921865
O       -0.47094522       2.37815704       0.02563620       18      -0.02754387      -0.05492009      -0.04113842
O       -0.94316037      -0.83297039       2.07236251       19       0.00148149      -0.02869090      -0.06813141
O        4.12371733       5.28655398       2.04672631       20      -0.06866025       0.00493963      -0.02699299
O        2.15366911       3.09015127       1.75755477       21       0.06866025       0.02584642      -0.00921865
O        2.15366911       6.63518523       0.28917154       22       0.06866025      -0.02090680      -0.01777433
O       -2.39912971       6.30946618       3.86973462       23       0.04259787       0.04427531      -0.04113842
O        3.60963844       2.06062548       7.66256064       24       0.02754387       0.05492009       0.04113842
O        5.53782292      -1.87068366       3.81846222       25      -0.04259787      -0.04427531       0.04113842
O        6.74833166       3.43067139       1.79737211       26       0.02754387      -0.06308696       0.02699299
O        3.87825673       2.41594667       4.13326996       27       0.04259787      -0.05776457      -0.01777433
O        0.73956351       4.59093472       7.37338910       28       0.04259787       0.01348926       0.05891276
O        2.39912970      -0.15215220       0.31480774       29      -0.04259787      -0.01348926      -0.05891276
O       -3.60963844       1.00811114       5.89082473       30      -0.02754387       0.06308696      -0.02699299
O        5.33422607       0.84115787       2.08654365       31       0.00148149       0.07334898       0.00921865
O        0.98502411       1.34863126       5.93064207       32      -0.06866025      -0.02584642       0.00921865
O        3.60963844      -1.05251434       5.91646094       33       0.02754387       0.00816687      -0.06813141
O        2.19553285      -0.00818748       3.52929068       34       0.00148149      -0.04465808       0.05891276
O        0.98502411      -2.19640271       7.39902531       35      -0.06866025       0.02090680       0.01777433
O       -0.73956352       2.02283586       3.55492688       36      -0.04259787       0.05776457       0.01777433
O       -0.98502411      -0.84777145       5.64147053       37       0.06866025      -0.00493963       0.02699299
O       -0.47094522       5.49129686       1.77173591       38      -0.02754387      -0.00816687       0.06813141
O        4.08185359       5.27175291       5.61583433       39      -0.00148149       0.02869090       0.06813141
40
Lattice="9.416079660180754 7.380003341479887e-10 1.2807092244625233e-14 -3.1386932207560463 8.877565039629378 -1.2782765241894058e-09 -3.1386932197123643 -4.438782519076673 7.688196848919824" Properties=species:S:1:pos:R:3:spacegroup_kinds:I:1:forces:R:3 spacegroup="P 1" unit_cell=conventional occupancy="_JSON {\"0\": {\"In\": 1}, \"1\": {\"In\": 1}, \"2\": {\"In\": 1}, \"3\": {\"In\": 1}, \"4\": {\"In\": 1}, \"5\": {\"In\": 1}, \"6\": {\"In\": 1}, \"7\": {\"In\": 1}, \"8\": {\"In\": 1}, \"9\": {\"In\": 1}, \"10\": {\"In\": 1}, \"11\": {\"In\": 1}, \"12\": {\"In\": 1}, \"13\": {\"In\": 1}, \"14\": {\"In\": 1}, \"15\": {\"In\": 1}, \"16\": {\"O\": 1}, \"17\": {\"O\": 1}, \"18\": {\"O\": 1}, \"19\": {\"O\": 1}, \"20\": {\"O\": 1}, \"21\": {\"O\": 1}, \"22\": {\"O\": 1}, \"23\": {\"O\": 1}, \"24\": {\"O\": 1}, \"25\": {\"O\": 1}, \"26\": {\"O\": 1}, \"27\": {\"O\": 1}, \"28\": {\"O\": 1}, \"29\": {\"O\": 1}, \"30\": {\"O\": 1}, \"31\": {\"O\": 1}, \"32\": {\"O\": 1}, \"33\": {\"O\": 1}, \"34\": {\"O\": 1}, \"35\": {\"O\": 1}, \"36\": {\"O\": 1}, \"37\": {\"O\": 1}, \"38\": {\"O\": 1}, \"39\": {\"O\": 1}}" n_minim_iter=2 energy=-45148.20514265706 stress="0.022068463220922964 -2.654962043464695e-12 5.866463673833843e-13 -2.654962043464695e-12 0.022068463220836904 -1.1267594274047086e-12 5.866463673833843e-13 -1.1267594274047086e-12 0.022068463219340573" free_energy=-45148.20514265706 pbc="T T T"
In      -4.51268781       3.19095215       6.00540402        0      -0.03289401       0.02325958      -0.04028677
In       7.65138102       1.24783037       1.68279282        1       0.03289401      -0.02325958       0.04028677
In       1.37399458      -0.97156089       5.52689124        2       0.03289401      -0.02325958       0.04028677
In      -1.56934661      -2.21939126       3.84409842        3       0.00000000       0.00000000      -0.00000000
In      -1.37399459       4.30064778       3.60484203        4      -0.03289401       0.02325958       0.04028677
In       4.90339185      -3.05281740       5.76614763        5      -0.03289401      -0.04651916       0.00000000
In      -1.37399459       1.38596511       5.76614763        6      -0.03289401      -0.04651916      -0.00000000
In      -1.76469864       7.49159993       1.92204921        7       0.03289401       0.04651916      -0.00000000
In       4.51268780       0.13813474       4.08335481        8       0.03289401      -0.02325958      -0.04028677
In      -1.56934661       4.43878252      -0.00000000        9       0.00000000      -0.00000000      -0.00000000
In       4.51268780       6.79630852       0.23925639       10       0.03289401      -0.02325958      -0.04028677
In      -1.37399459      -2.35752600       7.44894046       11      -0.03289401       0.02325958       0.04028677
In       4.51268780       3.05281741       1.92204921       12       0.03289401       0.04651916       0.00000000
In       1.76469863       5.41034341       2.16130560       13      -0.03289401       0.02325958      -0.04028677
In       4.70803983       0.00000000      -0.00000000       14       0.00000000       0.00000000      -0.00000000
In       1.56934661       2.21939126       3.84409842       15       0.00000000      -0.00000000       0.00000000
O        0.94305455       4.45015987       4.15469811       16      -0.00420001       0.00724229      -0.01553992
O       -2.19563867       3.59238544       5.60099472       17      -0.00420001      -0.01707911       0.00149796
O       -0.47291264       2.37423418       0.02269774       18      -0.01067425      -0.01250113      -0.00643134
O       -0.94305455      -0.83501974       2.06749598       19       0.00420001      -0.00983682      -0.01404197
O        4.11881303       5.28690681       2.04479824       20      -0.01470234       0.00612369      -0.00761063
O        2.15857341       3.09199744       1.75689630       21       0.01470234       0.00965285       0.00149796
O        2.15857341       6.63369189       0.28790194       22       0.01470234      -0.00352915      -0.00910859
O       -2.39608700       6.31262870       3.86679616       23       0.00822810       0.01423082      -0.00643134
O        3.61160586       2.06454834       7.66549910       24       0.01067425       0.01250113       0.00643134
O        5.53478022      -1.87384618       3.82140068       25      -0.00822810      -0.01423082       0.00643134
O        6.75029908       3.42616517       1.79930018       26       0.01067425      -0.01182027       0.00761063
O        3.88129944       2.41182062       4.13200036       27       0.00822810      -0.01268511      -0.00910859
O        0.74260622       4.59189824       7.37759716       28       0.00822810      -0.00154571       0.01553992
O        2.39608700      -0.15311571       0.31059969       29      -0.00822810       0.00154571      -0.01553992
O       -3.61160586       1.01261735       5.88889666       30      -0.01067425       0.01182027      -0.00761063
O        5.33433189       0.84639709       2.08720212       31       0.00420001       0.01707911      -0.00149796
O        0.98011981       1.34678508       5.93130055       32      -0.01470234      -0.00965285      -0.00149796
O        3.61160586      -1.05193099       5.91159441       33       0.01067425      -0.00068087      -0.01404197
O        2.19563867      -0.01137734       3.53349873       34       0.00420001      -0.00724229       0.01553992
O        0.98011981      -2.19490936       7.40029490       35      -0.01470234       0.00352915       0.00910859
O       -0.74260622       2.02696190       3.55619648       36      -0.00822810       0.01268511       0.00910859
O       -0.98011981      -0.84812428       5.64339860       37       0.01470234      -0.00612369       0.00761063
O       -0.47291264       5.49071351       1.77660244       38      -0.01067425       0.00068087       0.01404197
O        4.08174777       5.27380226       5.62070086       39      -0.00420001       0.00983682       0.01404197
40
Lattice="9.416079660180758 7.380003341479892e-10 1.2807092244625239e-14 -3.138693220756048 8.877565039629381 -1.2782765241894062e-09 -3.138693219712366 -4.438782519076675 7.688196848919827" Properties=species:S:1:pos:R:3:spacegroup_kinds:I:1:forces:R:3 spacegroup="P 1" unit_cell=conventional occupancy="_JSON {\"0\": {\"In\": 1}, \"1\": {\"In\": 1}, \"2\": {\"In\": 1}, \"3\": {\"In\": 1}, \"4\": {\"In\": 1}, \"5\": {\"In\": 1}, \"6\": {\"In\": 1}, \"7\": {\"In\": 1}, \"8\": {\"In\": 1}, \"9\": {\"In\": 1}, \"10\": {\"In\": 1}, \"11\": {\"In\": 1}, \"12\": {\"In\": 1}, \"13\": {\"In\": 1}, \"14\": {\"In\": 1}, \"15\": {\"In\": 1}, \"16\": {\"O\": 1}, \"17\": {\"O\": 1}, \"18\": {\"O\": 1}, \"19\": {\"O\": 1}, \"20\": {\"O\": 1}, \"21\": {\"O\": 1}, \"22\": {\"O\": 1}, \"23\": {\"O\": 1}, \"24\": {\"O\": 1}, \"25\": {\"O\": 1}, \"26\": {\"O\": 1}, \"27\": {\"O\": 1}, \"28\": {\"O\": 1}, \"29\": {\"O\": 1}, \"30\": {\"O\": 1}, \"31\": {\"O\": 1}, \"32\": {\"O\": 1}, \"33\": {\"O\": 1}, \"34\": {\"O\": 1}, \"35\": {\"O\": 1}, \"36\": {\"O\": 1}, \"37\": {\"O\": 1}, \"38\": {\"O\": 1}, \"39\": {\"O\": 1}}" n_minim_iter=3 energy=-45148.207556305 stress="0.021228014927274528 3.3561980878816957e-12 -9.983371299798073e-13 3.3561980878816957e-12 0.021228014930011332 5.395869454231038e-13 -9.983371299798073e-13 5.395869454231038e-13 0.021228014925070333" free_energy=-45148.207556305 pbc="T T T"
In      -4.51583857       3.19318008       6.00154514        0      -0.00615164       0.00434987      -0.00753419
In       7.65453179       1.24560245       1.68665170        1       0.00615164      -0.00434987       0.00753419
In       1.37714535      -0.97378881       5.53075013        2       0.00615164      -0.00434987       0.00753419
In      -1.56934661      -2.21939126       3.84409842        3      -0.00000000      -0.00000000      -0.00000000
In      -1.37714535       4.30287571       3.60870091        4      -0.00615164       0.00434987       0.00753419
In       4.90024109      -3.05727326       5.76614763        5      -0.00615164      -0.00869973       0.00000000
In      -1.37714535       1.38150926       5.76614763        6      -0.00615164      -0.00869973       0.00000000
In      -1.76154787       7.49605578       1.92204921        7       0.00615164       0.00869973      -0.00000000
In       4.51583857       0.13590682       4.07949593        8       0.00615164      -0.00434987      -0.00753419
In      -1.56934661       4.43878252      -0.00000000        9      -0.00000000       0.00000000      -0.00000000
In       4.51583857       6.79408060       0.23539751       10       0.00615164      -0.00434987      -0.00753419
In      -1.37714535      -2.35529807       7.45279934       11      -0.00615164       0.00434987       0.00753419
In       4.51583857       3.05727326       1.92204921       12       0.00615164       0.00869973      -0.00000000
In       1.76154787       5.41257134       2.15744672       13      -0.00615164       0.00434987      -0.00753419
In       4.70803983       0.00000000      -0.00000000       14      -0.00000000       0.00000000       0.00000000
In       1.56934661       2.21939126       3.84409842       15       0.00000000       0.00000000       0.00000000
O        0.94291932       4.45164929       4.15260354       16      -0.00576568      -0.01074229       0.00590785
O       -2.19577390       3.58982677       5.60075213       17      -0.00576568       0.01048750       0.00634917
O       -0.47396581       2.37232460       0.02133091       18      -0.00216212       0.00793939       0.01076262
O       -0.94291932      -0.83608898       2.06515882       19       0.00576568      -0.00025479       0.01225702
O        4.11644577       5.28718691       2.04382791       20       0.01180960       0.00646860       0.00149440
O        2.16094067       3.09297783       1.75665370       21      -0.01180960       0.00194011       0.00634917
O        2.16094067       6.63299160       0.28717420       22      -0.01180960       0.00452849      -0.00485477
O       -2.39463768       6.31425817       3.86542933       23      -0.00820603      -0.00060800       0.01076262
O        3.61265903       2.06645793       7.66686593       24       0.00216212      -0.00793939      -0.01076262
O        5.53333090      -1.87547564       3.82276751       25       0.00820603       0.00060800      -0.01076262
O        6.75135225       3.42402667       1.80027051       26       0.00216212       0.01329040      -0.00149440
O        3.88274876       2.40982218       4.13127262       27      -0.00820603       0.00962470      -0.00485477
O        0.74405554       4.59226722       7.37969173       28      -0.00820603      -0.00901670      -0.00590785
O        2.39463768      -0.15348469       0.30850511       29       0.00820603       0.00901670       0.00590785
O       -3.61265903       1.01475585       5.88792633       30      -0.00216212      -0.01329040       0.00149440
O        5.33446712       0.84895575       2.08744472       31       0.00576568      -0.01048750      -0.00634917
O        0.97775255       1.34580470       5.93154314       32       0.01180960      -0.00194011      -0.00634917
O        3.61265903      -1.05170207       5.90925724       33       0.00216212      -0.00535101       0.01225702
O        2.19577390      -0.01286677       3.53559331       34       0.00576568       0.01074229      -0.00590785
O        0.97775255      -2.19420908       7.40102264       35       0.01180960      -0.00452849       0.00485477
O       -0.74405554       2.02896034       3.55692422       36       0.00820603      -0.00962470       0.00485477
O       -0.97775255      -0.84840438       5.64436894       37      -0.01180960      -0.00646860      -0.00149440
O       -0.47396581       5.49048460       1.77893960       38      -0.00216212       0.00535101      -0.01225702
O        4.08161254       5.27487150       5.62303802       39      -0.00576568       0.00025479      -0.01225702
40
Lattice="9.416079660180758 7.380003341479893e-10 1.2807092244625245e-14 -3.1386932207560485 8.877565039629381 -1.2782765241894064e-09 -3.1386932197123665 -4.438782519076675 7.688196848919828" Properties=species:S:1:pos:R:3:spacegroup_kinds:I:1:forces:R:3 spacegroup="P 1" unit_cell=conventional occupancy="_JSON {\"0\": {\"In\": 1}, \"1\": {\"In\": 1}, \"2\": {\"In\": 1}, \"3\": {\"In\": 1}, \"4\": {\"In\": 1}, \"5\": {\"In\": 1}, \"6\": {\"In\": 1}, \"7\": {\"In\": 1}, \"8\": {\"In\": 1}, \"9\": {\"In\": 1}, \"10\": {\"In\": 1}, \"11\": {\"In\": 1}, \"12\": {\"In\": 1}, \"13\": {\"In\": 1}, \"14\": {\"In\": 1}, \"15\": {\"In\": 1}, \"16\": {\"O\": 1}, \"17\": {\"O\": 1}, \"18\": {\"O\": 1}, \"19\": {\"O\": 1}, \"20\": {\"O\": 1}, \"21\": {\"O\": 1}, \"22\": {\"O\": 1}, \"23\": {\"O\": 1}, \"24\": {\"O\": 1}, \"25\": {\"O\": 1}, \"26\": {\"O\": 1}, \"27\": {\"O\": 1}, \"28\": {\"O\": 1}, \"29\": {\"O\": 1}, \"30\": {\"O\": 1}, \"31\": {\"O\": 1}, \"32\": {\"O\": 1}, \"33\": {\"O\": 1}, \"34\": {\"O\": 1}, \"35\": {\"O\": 1}, \"36\": {\"O\": 1}, \"37\": {\"O\": 1}, \"38\": {\"O\": 1}, \"39\": {\"O\": 1}}" n_minim_iter=4 energy=-45148.207844972465 stress="0.021167305675722878 5.387371161662926e-13 5.258109011378537e-13 5.387371161662926e-13 0.02116730567650094 1.1883966224199557e-12 5.258109011378537e-13 1.1883966224199557e-12 0.021167305677215534" free_energy=-45148.207844972465 pbc="T T T"
In      -4.51649295       3.19364280       6.00074369        0      -0.00098298       0.00069508      -0.00120391
In       7.65518617       1.24513973       1.68745315        1       0.00098298      -0.00069508       0.00120391
In       1.37779973      -0.97425153       5.53155158        2       0.00098298      -0.00069508       0.00120391
In      -1.56934661      -2.21939126       3.84409842        3      -0.00000000       0.00000000      -0.00000000
In      -1.37779973       4.30333843       3.60950236        4      -0.00098298       0.00069508       0.00120391
In       4.89958671      -3.05819869       5.76614763        5      -0.00098298      -0.00139015      -0.00000000
In      -1.37779973       1.38058382       5.76614763        6      -0.00098299      -0.00139015      -0.00000000
In      -1.76089349       7.49698122       1.92204921        7       0.00098298       0.00139015       0.00000000
In       4.51649295       0.13544410       4.07869448        8       0.00098299      -0.00069508      -0.00120391
In      -1.56934661       4.43878252      -0.00000000        9      -0.00000000      -0.00000000       0.00000000
In       4.51649295       6.79361788       0.23459605       10       0.00098298      -0.00069508      -0.00120391
In      -1.37779973      -2.35483535       7.45360079       11      -0.00098298       0.00069508       0.00120391
In       4.51649295       3.05819870       1.92204921       12       0.00098298       0.00139015      -0.00000000
In       1.76089349       5.41303406       2.15664527       13      -0.00098299       0.00069508      -0.00120391
In       4.70803983       0.00000000      -0.00000000       14       0.00000000       0.00000000      -0.00000000
In       1.56934661       2.21939126       3.84409842       15       0.00000000      -0.00000000       0.00000000
O        0.94249544       4.45097667       4.15288768       16      -0.00557956      -0.00379125       0.00278228
O       -2.19619778       3.59040916       5.60119256       17      -0.00557956       0.00430515       0.00189218
O       -0.47419218       2.37276732       0.02201325       18      -0.00137534       0.00133232       0.00704127
O       -0.94249544      -0.83617921       2.06588340       19       0.00557955       0.00051390       0.00467446
O        4.11713614       5.28767109       2.04387014       20       0.00591879       0.00355138      -0.00236681
O        2.16025029       3.09318334       1.75709414       21      -0.00591879       0.00382540       0.00189218
O        2.16025029       6.63327028       0.28677601       22      -0.00591879      -0.00027403      -0.00425899
O       -2.39513054       6.31432401       3.86611167       23      -0.00171457       0.00085258       0.00704127
O        3.61288539       2.06601521       7.66618360       24       0.00137534      -0.00133232      -0.00704127
O        5.53382376      -1.87554149       3.82208517       25       0.00171457      -0.00085258      -0.00704127
O        6.75157861       3.42483895       1.80022827       26       0.00137534       0.00676408       0.00236681
O        3.88225590       2.41038018       4.13087443       27      -0.00171457       0.00567163      -0.00425899
O        0.74356268       4.59164337       7.37940759       28      -0.00171457      -0.00652420      -0.00278228
O        2.39513054      -0.15286085       0.30878926       29       0.00171457       0.00652420       0.00278228
O       -3.61288540       1.01394357       5.88796857       30      -0.00137534      -0.00676408      -0.00236681
O        5.33489100       0.84837336       2.08700428       31       0.00557956      -0.00430515      -0.00189218
O        0.97844292       1.34559919       5.93110271       32       0.00591879      -0.00382540      -0.00189218
O        3.61288539      -1.05207163       5.90998182       33       0.00137534      -0.00543176       0.00467446
O        2.19619778      -0.01219415       3.53530916       34       0.00557956       0.00379125      -0.00278228
O        0.97844292      -2.19448775       7.40142084       35       0.00591879       0.00027403       0.00425899
O       -0.74356268       2.02840234       3.55732241       36       0.00171457      -0.00567163       0.00425899
O       -0.97844293      -0.84888856       5.64432670       37      -0.00591879      -0.00355138       0.00236681
O       -0.47419218       5.49085416       1.77821502       38      -0.00137534       0.00543176      -0.00467446
O        4.08118866       5.27496173       5.62231345       39      -0.00557956      -0.00051390      -0.00467446
