40
Lattice="8.107331345166976 6.354269557642697e-10 1.8966082424102243e-14 -2.702443782321414 7.643665295113299 -1.1006117322442068e-09 -2.7024437814228017 -3.8218326469212087 6.619608324327324" Properties=species:S:1:pos:R:3:spacegroup_kinds:I:1:forces:R:3 spacegroup="P 1" unit_cell=conventional occupancy="_JSON {\"0\": {\"In\": 1}, \"1\": {\"In\": 1}, \"2\": {\"In\": 1}, \"3\": {\"In\": 1}, \"4\": {\"In\": 1}, \"5\": {\"In\": 1}, \"6\": {\"In\": 1}, \"7\": {\"In\": 1}, \"8\": {\"In\": 1}, \"9\": {\"In\": 1}, \"10\": {\"In\": 1}, \"11\": {\"In\": 1}, \"12\": {\"In\": 1}, \"13\": {\"In\": 1}, \"14\": {\"In\": 1}, \"15\": {\"In\": 1}, \"16\": {\"O\": 1}, \"17\": {\"O\": 1}, \"18\": {\"O\": 1}, \"19\": {\"O\": 1}, \"20\": {\"O\": 1}, \"21\": {\"O\": 1}, \"22\": {\"O\": 1}, \"23\": {\"O\": 1}, \"24\": {\"O\": 1}, \"25\": {\"O\": 1}, \"26\": {\"O\": 1}, \"27\": {\"O\": 1}, \"28\": {\"O\": 1}, \"29\": {\"O\": 1}, \"30\": {\"O\": 1}, \"31\": {\"O\": 1}, \"32\": {\"O\": 1}, \"33\": {\"O\": 1}, \"34\": {\"O\": 1}, \"35\": {\"O\": 1}, \"36\": {\"O\": 1}, \"37\": {\"O\": 1}, \"38\": {\"O\": 1}, \"39\": {\"O\": 1}}" n_minim_iter=9 energy=-45168.58813704452 stress="0.6016059609702396 -3.209166260846336e-13 -1.1907576779268212e-12 -3.209166260846336e-13 0.6016059609751008 3.80988761173375e-13 -1.1907576779268212e-12 3.80988761173375e-13 0.6016059609760007" free_energy=-45168.58813704452 pbc="T T T"
In      -4.33292017       3.06383724       4.62269072        0       0.00270481      -0.00191259       0.00331271
In       7.03536395       0.75799541       1.99691759        1      -0.00270481       0.00191259      -0.00331271
In       1.63047639      -1.15292091       5.30672176        2      -0.00270481       0.00191259      -0.00331271
In      -1.35122189      -1.91091632       3.30980416        3       0.00000000       0.00000000      -0.00000000
In      -1.63047639       4.01929540       3.65181968        4       0.00270481      -0.00191259      -0.00331271
In       3.77441117      -3.26129998       4.96470624        5       0.00270481       0.00382519      -0.00000000
In      -1.63047639       0.56053266       4.96470624        6       0.00270481       0.00382519       0.00000000
In      -1.07196739       7.08313264       1.65490208        7      -0.00270481      -0.00382519      -0.00000000
In       4.33292017      -0.19746275       2.96778864        8      -0.00270481       0.00191259       0.00331271
In      -1.35122189       3.82183265      -0.00000000        9      -0.00000000      -0.00000000       0.00000000
In       4.33292017       5.53528622      -0.34201552       10      -0.00270481       0.00191259       0.00331271
In      -1.63047639      -1.71345357       6.96162384       11       0.00270481      -0.00191259      -0.00331271
In       4.33292017       3.26129999       1.65490208       12      -0.00270481      -0.00382519      -0.00000000
In       1.07196739       4.97475356       1.31288656       13       0.00270481      -0.00191259       0.00331271
In       4.05366567       0.00000000      -0.00000000       14       0.00000000      -0.00000000      -0.00000000
In       1.35122189       1.91091633       3.30980416       15       0.00000000      -0.00000000       0.00000000
O        0.22911265       3.49165939       3.53811876       16      -0.00041584      -0.00417476      -0.00600927
O       -2.47333113       3.22918736       5.13648737       17      -0.00041584      -0.00311680       0.00662009
O       -0.79367079       2.04148814       0.57403444       18      -0.00701316       0.00154821      -0.00145996
O       -0.22911265      -0.92281855       2.05499781       19       0.00041584      -0.00729156       0.00061081
O        3.86895074       5.07607014       1.48096337       20      -0.00279994       0.00644866       0.00207077
O        1.53593682       3.16639949       1.82668321       21       0.00279994       0.00143099       0.00662009
O        1.53593681       5.73150330      -0.34571985       22       0.00279994       0.00501767      -0.00454932
O       -2.18929041       5.80053292       3.88383860       23      -0.00379739       0.00609600      -0.00145996
O        3.49611457       1.78034451       6.04557388       24       0.00701316      -0.00154821       0.00145996
O        4.89173419      -1.97870027       2.73576972       25       0.00379739      -0.00609600       0.00145996
O        6.19855835       3.42878880       1.82884079       26       0.00701316      -0.00049025      -0.00207077
O        3.21559715       2.37415276       2.96408432       27      -0.00379739      -0.00431236      -0.00454932
O        0.51315337       3.29081227       6.39129373       28      -0.00379739      -0.00178364       0.00600927
O        2.18929041       0.53102038       0.22831459       29       0.00379739       0.00178364      -0.00600927
O       -3.49611457       0.39304385       4.79076753       30      -0.00701316       0.00049025       0.00207077
O        5.17577491       0.59264529       1.48312095       31       0.00041584       0.00311680      -0.00662009
O        1.16650696       0.65543316       4.79292511       32      -0.00279994      -0.00143099      -0.00662009
O        3.49611457      -1.38730066       5.36480197       33       0.00701316       0.00203847       0.00061081
O        2.47333113       0.33017326       3.08148956       34       0.00041584       0.00417476       0.00600927
O        1.16650696      -1.90967064       6.96532816       35      -0.00279994      -0.00501767       0.00454932
O       -0.51315338       1.44767989       3.65552400       36       0.00379739       0.00431236       0.00454932
O       -1.16650697      -1.25423749       5.13864495       37       0.00279994      -0.00644866      -0.00207077
O       -0.79367079       5.20913331       1.25480635       38      -0.00701316      -0.00203847      -0.00061081
O        2.93155643       4.74465120       4.56461051       39      -0.00041584       0.00729156      -0.00061081
