10
Lattice="5.855500050766871 0.02743512270169916 0.018943566707946047 3.235976695444974 4.8801729843342185 0.018943566707945548 3.235976695444974 1.7467905278823004 4.5568816165713395" Properties=species:S:1:pos:R:3:spacegroup_kinds:I:1:forces:R:3 spacegroup="P 1" unit_cell=conventional occupancy="_JSON {\"0\": {\"In\": 1}, \"1\": {\"In\": 1}, \"2\": {\"In\": 1}, \"3\": {\"In\": 1}, \"4\": {\"O\": 1}, \"5\": {\"O\": 1}, \"6\": {\"O\": 1}, \"7\": {\"O\": 1}, \"8\": {\"O\": 1}, \"9\": {\"O\": 1}}" n_minim_iter=5 energy=-11287.665570604566 stress="-0.012343983912489587 -0.0002669775766840653 -0.0001843442659772037 -0.0002669775766840653 -0.011993516076434379 -9.950962238397071e-05 -0.0001843442659772037 -9.950962238397071e-05 -0.011918110724321125" free_energy=-11287.665570604566 pbc="T T T"
In      10.56261559       5.70173355       3.93696689        0      -0.00827963      -0.00446937      -0.00308604
In       7.92856458       4.27986442       2.95518624        1       0.00827963       0.00446937       0.00308604
In       4.39888887       2.37453423       1.63958252        2      -0.00827963      -0.00446937      -0.00308604
In       1.76483786       0.95266510       0.65780186        3       0.00827963       0.00446937       0.00308604
O        6.00961339       2.31771853       0.23069933        4       0.00000000      -0.00342586       0.00496152
O        7.09222306       5.10920721       1.16763576        5       0.00286404      -0.00530571      -0.00000000
O        8.16298042       2.19931030       2.50914014        6      -0.00286404       0.00187984       0.00496152
O        4.16447303       4.45508834       2.08562862        7       0.00286404      -0.00187984      -0.00496152
O        6.31784006       4.33668012       4.36406942        8       0.00000000       0.00342586      -0.00496152
O        5.23523040       1.54519144       3.42713300        9      -0.00286404       0.00530571       0.00000000
