10
Lattice="6.432385541744658 0.10214328436726583 0.07052850254101371 3.614982762499992 5.3214581305329265 0.07052850254101865 3.6149827624999946 1.951379210141207 4.951263483487255" Properties=species:S:1:pos:R:3:spacegroup_kinds:I:1:forces:R:3 spacegroup="P 1" unit_cell=conventional occupancy="_JSON {\"0\": {\"In\": 1}, \"1\": {\"In\": 1}, \"2\": {\"In\": 1}, \"3\": {\"In\": 1}, \"4\": {\"O\": 1}, \"5\": {\"O\": 1}, \"6\": {\"O\": 1}, \"7\": {\"O\": 1}, \"8\": {\"O\": 1}, \"9\": {\"O\": 1}}" n_minim_iter=1 energy=-11286.046798194702 stress="0.10012629468121634 -0.002194902786800936 -0.001515549532238222 -0.002194902786800936 0.10300759593917148 -0.0008180984647064227 -0.001515549532238222 -0.0008180984647064227 0.10362752596069837" free_energy=-11286.046798194702 pbc="T T T"
In      11.61438304       6.26948097       4.32898851        0      -0.05608528      -0.03027501      -0.02090447
In       8.87914357       4.79298998       3.30949223        1       0.05608528       0.03027501       0.02090447
In       4.78320751       2.58199065       1.78282826        2      -0.05608528      -0.03027501      -0.02090447
In       2.04796803       1.10549967       0.76333199        3       0.05608528       0.03027501       0.02090447
O        6.63178054       2.58788482       0.30460488        4      -0.00000000       0.07590277      -0.10992659
O        7.85986361       5.62891545       1.34360863        5      -0.06345509       0.11755227       0.00000000
O        9.01868024       2.49020485       2.78023663        6       0.06345509      -0.04164951      -0.10992659
O        4.64367084       4.88477579       2.31208387        7      -0.06345509       0.04164951       0.10992659
O        7.03057053       4.78709582       4.78771561        8       0.00000000      -0.07590277       0.10992659
O        5.80248747       1.74606519       3.74871187        9       0.06345509      -0.11755227      -0.00000000
10
Lattice="6.447210772060823 0.117029781108364 0.08080741935610547 3.635562875737238 5.325683551019962 0.08080741935611044 3.63556287573724 1.9624884208212983 4.951572914011256" Properties=species:S:1:pos:R:3:spacegroup_kinds:I:1:forces:R:3 spacegroup="P 1" unit_cell=conventional occupancy="_JSON {\"0\": {\"In\": 1}, \"1\": {\"In\": 1}, \"2\": {\"In\": 1}, \"3\": {\"In\": 1}, \"4\": {\"O\": 1}, \"5\": {\"O\": 1}, \"6\": {\"O\": 1}, \"7\": {\"O\": 1}, \"8\": {\"O\": 1}, \"9\": {\"O\": 1}}" n_minim_iter=2 energy=-11286.049196291688 stress="0.10126335964316598 0.0003597883247303184 0.00024842878215759593 0.0003597883247303184 0.10079105692316104 0.00013410264717772424 0.00024842878215759593 0.00013410264717772424 0.10068943803523953" free_energy=-11286.049196291688 pbc="T T T"
In      11.66161840       6.29497876       4.34659437        0      -0.06373654      -0.03440519      -0.02375630
In       8.91588640       4.81282388       3.32318726        1       0.06373654       0.03440519       0.02375630
In       4.80245013       2.59237788       1.79000050        2      -0.06373654      -0.03440519      -0.02375630
In       2.05671814       1.11022301       0.76659338        3       0.06373654       0.03440519       0.02375630
O        6.65318952       2.60194915       0.31631411        4      -0.00000000       0.06031232      -0.08734765
O        7.89234364       5.64457988       1.35910436        5      -0.05042140       0.09340701       0.00000000
O        9.04959828       2.51127060       2.79210057        6       0.05042140      -0.03309469      -0.08734765
O        4.66873825       4.89393117       2.32108719        7      -0.05042140       0.03309469       0.08734765
O        7.06514701       4.80325261       4.79687365        8       0.00000000      -0.06031232       0.08734765
O        5.82599290       1.76062189       3.75408340        9       0.05042140      -0.09340701      -0.00000000
10
Lattice="6.443532404210235 0.11334116389098918 0.07826048099985429 3.6304607725570177 5.324632442006131 0.07826048099985927 3.630460772557018 1.959734289272689 4.9514923872302745" Properties=species:S:1:pos:R:3:spacegroup_kinds:I:1:forces:R:3 spacegroup="P 1" unit_cell=conventional occupancy="_JSON {\"0\": {\"In\": 1}, \"1\": {\"In\": 1}, \"2\": {\"In\": 1}, \"3\": {\"In\": 1}, \"4\": {\"O\": 1}, \"5\": {\"O\": 1}, \"6\": {\"O\": 1}, \"7\": {\"O\": 1}, \"8\": {\"O\": 1}, \"9\": {\"O\": 1}}" n_minim_iter=3 energy=-11286.053942789102 stress="0.09864494811590262 0.00015848476717649637 0.00010943150506469874 0.00015848476717649637 0.09843690137991364 5.907147501402338e-05 0.00010943150506469874 5.907147501402338e-05 0.09839213882237371" free_energy=-11286.053942789102 pbc="T T T"
In      11.64463573       6.28581146       4.34026449        0      -0.03116318      -0.01682199      -0.01161534
In       8.91204520       4.81075039       3.32175554        1       0.03116318       0.01682199       0.01161534
In       4.79240876       2.58695752       1.78625781        2      -0.03116318      -0.01682199      -0.01161534
In       2.05981823       1.11189644       0.76774887        3       0.03116318       0.01682199       0.01161534
O        6.64787969       2.60366814       0.30587322        4       0.00000000       0.00715819      -0.01036688
O        7.87993760       5.64875658       1.35526382        5      -0.00598428       0.01108604      -0.00000000
O        9.04628257       2.50319249       2.78161941        6       0.00598428      -0.00392785      -0.01036688
O        4.65817139       4.89451542       2.32639394        7      -0.00598428       0.00392785       0.01036688
O        7.05657427       4.79403976       4.80214013        8      -0.00000000      -0.00715819       0.01036688
O        5.82451636       1.74895132       3.75274953        9       0.00598428      -0.01108604       0.00000000
10
Lattice="6.441979919493461 0.1117833757756963 0.07718485019623968 3.628306571646752 5.324189349412898 0.07718485019624466 3.6283065716467515 1.9585714447594684 4.951459141028467" Properties=species:S:1:pos:R:3:spacegroup_kinds:I:1:forces:R:3 spacegroup="P 1" unit_cell=conventional occupancy="_JSON {\"0\": {\"In\": 1}, \"1\": {\"In\": 1}, \"2\": {\"In\": 1}, \"3\": {\"In\": 1}, \"4\": {\"O\": 1}, \"5\": {\"O\": 1}, \"6\": {\"O\": 1}, \"7\": {\"O\": 1}, \"8\": {\"O\": 1}, \"9\": {\"O\": 1}}" n_minim_iter=4 energy=-11286.05421439624 stress="0.09783448339240272 -1.1808176120766833e-05 -8.15337888916707e-06 -1.1808176120766833e-05 0.09784998426521581 -4.4012200445516e-06 -8.15337888916707e-06 -4.4012200445516e-06 0.09785331937591434" free_energy=-11286.05421439624 pbc="T T T"
In      11.63789329       6.28217187       4.33775140        0      -0.01794158      -0.00968492      -0.00668730
In       8.90999631       4.80964439       3.32099187        1       0.01794158       0.00968492       0.00668730
In       4.78859676       2.58489979       1.78483698        2      -0.01794158      -0.00968492      -0.00668730
In       2.06069978       1.11237231       0.76807745        3       0.01794158       0.00968492       0.00668730
O        6.64563823       2.60356850       0.30266008        4       0.00000000      -0.00639612       0.00926322
O        7.87538995       5.64924212       1.35364206        5       0.00534719      -0.00990581       0.00000000
O        9.04419308       2.50023452       2.77838965        6      -0.00534719       0.00350969       0.00926322
O        4.65439999       4.89430966       2.32743920        7       0.00534719      -0.00350969      -0.00926322
O        7.05295484       4.79097568       4.80316877        8      -0.00000000       0.00639612      -0.00926322
O        5.82320312       1.74530207       3.75218678        9      -0.00534719       0.00990581      -0.00000000
10
Lattice="6.442176454854961 0.11198061465020216 0.07732104086749081 3.6285793075755217 5.324245424675664 0.07732104086749578 3.6285793075755204 1.958718668482574 4.951463325450208" Properties=species:S:1:pos:R:3:spacegroup_kinds:I:1:forces:R:3 spacegroup="P 1" unit_cell=conventional occupancy="_JSON {\"0\": {\"In\": 1}, \"1\": {\"In\": 1}, \"2\": {\"In\": 1}, \"3\": {\"In\": 1}, \"4\": {\"O\": 1}, \"5\": {\"O\": 1}, \"6\": {\"O\": 1}, \"7\": {\"O\": 1}, \"8\": {\"O\": 1}, \"9\": {\"O\": 1}}" n_minim_iter=5 energy=-11286.05432493968 stress="0.09767003994149963 -4.395588591070363e-05 -3.0350921471119866e-05 -4.395588591070363e-05 0.09772774188212516 -1.638352419702772e-05 -3.0350921471119866e-05 -1.638352419702772e-05 0.09774015681617569" free_energy=-11286.05432493968 pbc="T T T"
In      11.63666816       6.28151054       4.33729476        0      -0.00078861      -0.00042569      -0.00029394
In       8.91233446       4.81090653       3.32186336        1       0.00078861       0.00042569       0.00029394
In       4.78700062       2.58403819       1.78424206        2      -0.00078861      -0.00042569      -0.00029394
In       2.06266692       1.11343418       0.76881065        3       0.00078861       0.00042569       0.00029394
O        6.64592200       2.60363680       0.30298624        4      -0.00000000      -0.00360620       0.00522269
O        7.87591915       5.64926687       1.35384740        5       0.00301480      -0.00558499       0.00000000
O        9.04450416       2.50057847       2.77871791        6      -0.00301480       0.00197880       0.00522269
O        4.65483092       4.89436625       2.32738751        7       0.00301480      -0.00197880      -0.00522269
O        7.05341308       4.79130792       4.80311917        8      -0.00000000       0.00360620      -0.00522269
O        5.82341593       1.74567785       3.75225802        9      -0.00301480       0.00558499      -0.00000000
