10
Lattice="5.118228552626283 -0.30433891636328314 -0.21014174518689893 2.554054967366681 4.44586199927547 -0.21014174518689863 2.5540549673666892 1.378687006914125 4.231910987560817" Properties=species:S:1:pos:R:3:spacegroup_kinds:I:1:forces:R:3 spacegroup="P 1" unit_cell=conventional occupancy="_JSON {\"0\": {\"In\": 1}, \"1\": {\"In\": 1}, \"2\": {\"In\": 1}, \"3\": {\"In\": 1}, \"4\": {\"O\": 1}, \"5\": {\"O\": 1}, \"6\": {\"O\": 1}, \"7\": {\"O\": 1}, \"8\": {\"O\": 1}, \"9\": {\"O\": 1}}" n_minim_iter=5 energy=-11285.02531660974 stress="-0.33763705645651865 1.4167606492741964e-05 9.782533805053398e-06 1.4167606492741964e-05 -0.33765565460934127 5.280642375856949e-06 9.782533805053398e-06 5.280642375856949e-06 -0.3376596561192593" free_energy=-11285.02531660974 pbc="T T T"
In       8.89292907       4.80043144       3.31463045        0      -0.00020165      -0.00010885      -0.00007516
In       6.44657865       3.47988369       2.40281079        1       0.00020165       0.00010885       0.00007516
In       3.77975982       2.04032639       1.40881670        2      -0.00020165      -0.00010885      -0.00007516
In       1.33340941       0.71977865       0.49699704        3       0.00020165       0.00010885       0.00007516
O        5.11569889       1.88427860      -0.10279238        4       0.00000000       0.00038005      -0.00055040
O        5.84397643       4.46738817       0.74276513        5      -0.00031772       0.00058859       0.00000000
O        6.94147632       1.55704800       2.01316311        6       0.00031772      -0.00020854      -0.00055040
O        3.28486216       3.96316209       1.79846438        7      -0.00031772       0.00020854       0.00055040
O        5.11063958       3.63593149       3.91441987        8       0.00000000      -0.00038005       0.00055040
O        4.38236204       1.05282192       3.06886237        9       0.00031772      -0.00058859      -0.00000000
