10
Lattice="6.3892138681936705 0.10145773831292502 0.07005514262376969 3.5907204021824595 5.285742570304814 0.07005514262377172 3.590720402182462 1.9382823107579732 4.918032525954184" Properties=species:S:1:pos:R:3:spacegroup_kinds:I:1:forces:R:3 spacegroup="P 1" unit_cell=conventional occupancy="_JSON {\"0\": {\"In\": 1}, \"1\": {\"In\": 1}, \"2\": {\"In\": 1}, \"3\": {\"In\": 1}, \"4\": {\"O\": 1}, \"5\": {\"O\": 1}, \"6\": {\"O\": 1}, \"7\": {\"O\": 1}, \"8\": {\"O\": 1}, \"9\": {\"O\": 1}}" n_minim_iter=5 energy=-11286.355454490358 stress="0.08411051798112647 -6.969572734787404e-06 -4.812392764362168e-06 -6.969572734787404e-06 0.08411966710658378 -2.5977445052982747e-06 -4.812392764362168e-06 -2.5977445052982747e-06 0.08412163559707125" free_energy=-11286.355454490358 pbc="T T T"
In      11.53643181       6.22740264       4.29993402        0      -0.00372350      -0.00200995      -0.00138785
In       8.81955021       4.76082130       3.28728021        1       0.00372350       0.00200995       0.00138785
In       4.75110448       2.56466133       1.77086261        2      -0.00372350      -0.00200995      -0.00138785
In       2.03422287       1.09807999       0.75820880        3       0.00372350       0.00200995       0.00138785
O        6.58727061       2.57051594       0.30256049        4       0.00000000      -0.00095622       0.00138485
O        7.80711126       5.59113635       1.33459085        5       0.00079940      -0.00148091       0.00000000
O        8.95815036       2.47349156       2.76157676        6      -0.00079940       0.00052470       0.00138485
O        4.61250432       4.85199107       2.29656606        7       0.00079940      -0.00052470      -0.00138485
O        6.98338408       4.75496669       4.75558232        8      -0.00000000       0.00095622      -0.00138485
O        5.76354343       1.73434628       3.72355197        9      -0.00079940       0.00148091       0.00000000
