10
Lattice="6.152479894554447 -0.0062518858364167176 -0.004316839318723785 3.37077351641382 5.146934411862698 -0.004316839318726893 3.3707735164138213 1.819554281214796 4.814579388984152" Properties=species:S:1:pos:R:3:spacegroup_kinds:I:1:forces:R:3 spacegroup="P 1" unit_cell=conventional occupancy="_JSON {\"0\": {\"In\": 1}, \"1\": {\"In\": 1}, \"2\": {\"In\": 1}, \"3\": {\"In\": 1}, \"4\": {\"O\": 1}, \"5\": {\"O\": 1}, \"6\": {\"O\": 1}, \"7\": {\"O\": 1}, \"8\": {\"O\": 1}, \"9\": {\"O\": 1}}" n_minim_iter=1 energy=-11287.025877268132 stress="0.06155278510028892 -0.0034450714203099 -0.002378773404207985 -0.0034450714203099 0.06607521255513335 -0.0012840694615057586 -0.002378773404207985 -0.0012840694615057586 0.06704824116031691" free_energy=-11287.025877268132 pbc="T T T"
In      11.00704037       5.94163546       4.10261579        0      -0.09268704      -0.05003276      -0.03454692
In       8.33400003       4.49871976       3.10630278        1       0.09268704       0.05003276       0.03454692
In       4.56002691       2.46151705       1.69964294        2      -0.09268704      -0.05003276      -0.03454692
In       1.88698656       1.01860136       0.70332992        3       0.09268704       0.05003276       0.03454692
O        6.29974668       2.40522539       0.23147034        4      -0.00000000       0.02586662      -0.03746147
O        7.42643789       5.34539908       1.19716959        5      -0.02162462       0.04006020       0.00000000
O        8.54382899       2.28000392       2.63876003        6       0.02162462      -0.01419358      -0.03746147
O        4.35019795       4.68023290       2.16718569        7      -0.02162462       0.01419358       0.03746147
O        6.59428025       4.55501143       4.57447538        8       0.00000000      -0.02586662       0.03746147
O        5.46758904       1.61483774       3.60877612        9       0.02162462      -0.04006020      -0.00000000
10
Lattice="6.197636684491586 0.040130768216884764 0.02770973153732128 3.4343281635726486 5.159234537836526 0.027709731537318164 3.4343281635726495 1.8538612821941962 4.814734384367263" Properties=species:S:1:pos:R:3:spacegroup_kinds:I:1:forces:R:3 spacegroup="P 1" unit_cell=conventional occupancy="_JSON {\"0\": {\"In\": 1}, \"1\": {\"In\": 1}, \"2\": {\"In\": 1}, \"3\": {\"In\": 1}, \"4\": {\"O\": 1}, \"5\": {\"O\": 1}, \"6\": {\"O\": 1}, \"7\": {\"O\": 1}, \"8\": {\"O\": 1}, \"9\": {\"O\": 1}}" n_minim_iter=2 energy=-11287.033662506408 stress="0.059612167009133764 0.0009531676177912269 0.0006581488464108637 0.0009531676177912269 0.05836092113476953 0.00035527084309687555 0.0006581488464108637 0.00035527084309687555 0.05809170774353247" free_energy=-11287.033662506408 pbc="T T T"
In      11.15275425       6.02029227       4.15692722        0      -0.11772155      -0.06354647      -0.04387794
In       8.44668528       4.55954762       3.14830356        1       0.11772155       0.06354647       0.04387794
In       4.61960775       2.49367898       1.72185029        2      -0.11772155      -0.06354647      -0.04387794
In       1.91353877       1.03293433       0.71322664        3       0.11772155       0.06354647       0.04387794
O        6.36539160       2.44761124       0.26940532        4      -0.00000000       0.01430561      -0.02071818
O        7.52724840       5.39171107       1.24524820        5      -0.01195956       0.02215542      -0.00000000
O        8.63786297       2.34582012       2.67677251        6       0.01195956      -0.00784980      -0.02071818
O        4.42843005       4.70740648       2.19338134        7      -0.01195956       0.00784980       0.02071818
O        6.70090142       4.60561536       4.60074853        8       0.00000000      -0.01430561       0.02071818
O        5.53904463       1.66151553       3.62490566        9       0.01195956      -0.02215542       0.00000000
10
Lattice="6.180542171166915 0.02263759006431693 0.015630937836624 3.410323646518469 5.154542328476268 0.015630937836620958 3.41032364651847 1.8409035674258387 4.814626153473391" Properties=species:S:1:pos:R:3:spacegroup_kinds:I:1:forces:R:3 spacegroup="P 1" unit_cell=conventional occupancy="_JSON {\"0\": {\"In\": 1}, \"1\": {\"In\": 1}, \"2\": {\"In\": 1}, \"3\": {\"In\": 1}, \"4\": {\"O\": 1}, \"5\": {\"O\": 1}, \"6\": {\"O\": 1}, \"7\": {\"O\": 1}, \"8\": {\"O\": 1}, \"9\": {\"O\": 1}}" n_minim_iter=3 energy=-11287.035828011545 stress="0.059482289336589125 -0.0008598939473795583 -0.0005937446870598902 -0.0008598939473795583 0.06061109263836888 -0.0003205052740003345 -0.0005937446870598902 -0.0003205052740003345 0.060853961743665134" free_energy=-11287.035828011545 pbc="T T T"
In      11.09379424       5.98846547       4.13495126        0      -0.08332800      -0.04498072      -0.03105855
In       8.40798996       4.53865977       3.13388079        1       0.08332800       0.04498072       0.03105855
In       4.59319951       2.47942373       1.71200724        2      -0.08332800      -0.04498072      -0.03105855
In       1.90739523       1.02961802       0.71093678        3       0.08332800       0.04498072       0.03105855
O        6.34056846       2.43216827       0.25427349        4       0.00000000       0.01423495      -0.02061584
O        7.48867625       5.37506850       1.22710295        5      -0.01190049       0.02204597       0.00000000
O        8.60278431       2.32066240       2.66158656        6       0.01190049      -0.00781103      -0.02061584
O        4.39840516       4.69742110       2.18430147        7      -0.01190049       0.00781103       0.02061584
O        6.66062102       4.58591522       4.59161455        8      -0.00000000      -0.01423495       0.02061584
O        5.51251323       1.64301500       3.61878509        9       0.01190049      -0.02204597       0.00000000
10
Lattice="6.192528291186296 0.03491146723133506 0.024105877548270833 3.4271617149238085 5.157827840035709 0.02410587754826776 3.4271617149238085 1.849992810385988 4.814695807867818" Properties=species:S:1:pos:R:3:spacegroup_kinds:I:1:forces:R:3 spacegroup="P 1" unit_cell=conventional occupancy="_JSON {\"0\": {\"In\": 1}, \"1\": {\"In\": 1}, \"2\": {\"In\": 1}, \"3\": {\"In\": 1}, \"4\": {\"O\": 1}, \"5\": {\"O\": 1}, \"6\": {\"O\": 1}, \"7\": {\"O\": 1}, \"8\": {\"O\": 1}, \"9\": {\"O\": 1}}" n_minim_iter=4 energy=-11287.039591801953 stress="0.05679223341686738 2.6530574899440687e-05 1.8318989787011876e-05 2.6530574899440687e-05 0.056757406097901024 9.888648991089535e-06 1.8318989787011876e-05 9.888648991089535e-06 0.05674991278229126" free_energy=-11287.039591801953 pbc="T T T"
In      11.12002253       6.00262359       4.14472724        0       0.00153453       0.00082834       0.00057196
In       8.45025506       4.56147460       3.14963411        1      -0.00153453      -0.00082834      -0.00057196
In       4.59659667       2.48125753       1.71327346        2       0.00153453       0.00082834       0.00057196
In       1.92682920       1.04010854       0.71818033        3      -0.00153453      -0.00082834      -0.00057196
O        6.35797708       2.44511955       0.26182132        4      -0.00000000      -0.00745933       0.01080301
O        7.51395868       5.39002039       1.23983277        5       0.00623604      -0.01155243      -0.00000000
O        8.62915719       2.33714825       2.66916922        6      -0.00623604       0.00409310       0.01080301
O        4.41769454       4.70558388       2.19373834        7       0.00623604      -0.00409310      -0.01080301
O        6.68887465       4.59761258       4.60108625        8       0.00000000       0.00745933      -0.01080301
O        5.53289305       1.65271174       3.62307480        9      -0.00623604       0.01155243      -0.00000000
10
Lattice="6.192128107126093 0.03450229989625889 0.023823353253008744 3.426600059255566 5.157717803221587 0.0238233532530056 3.4266000592555654 1.8496896268672072 4.814693009329772" Properties=species:S:1:pos:R:3:spacegroup_kinds:I:1:forces:R:3 spacegroup="P 1" unit_cell=conventional occupancy="_JSON {\"0\": {\"In\": 1}, \"1\": {\"In\": 1}, \"2\": {\"In\": 1}, \"3\": {\"In\": 1}, \"4\": {\"O\": 1}, \"5\": {\"O\": 1}, \"6\": {\"O\": 1}, \"7\": {\"O\": 1}, \"8\": {\"O\": 1}, \"9\": {\"O\": 1}}" n_minim_iter=5 energy=-11287.039611781905 stress="0.05692774846010826 -4.634043313961361e-06 -3.1997406722535087e-06 -4.634043313961361e-06 0.05693383167989732 -1.7272307724748064e-06 -3.1997406722535087e-06 -1.7272307724748064e-06 0.056935140520667976" free_energy=-11287.039611781905 pbc="T T T"
In      11.11931690       6.00224269       4.14446423        0      -0.00272602      -0.00147152      -0.00101606
In       8.44867545       4.56062192       3.14904535        1       0.00272602       0.00147152       0.00101606
In       4.59665279       2.48128782       1.71329437        2      -0.00272602      -0.00147152      -0.00101606
In       1.92601134       1.03966706       0.71787549        3       0.00272602       0.00147152       0.00101606
O        6.35739612       2.44456779       0.26174314        4       0.00000000      -0.00535458       0.00775480
O        7.51321525       5.38933592       1.23940828        5       0.00447645      -0.00829275       0.00000000
O        8.62817704       2.33666417       2.66908965        6      -0.00447645       0.00293817       0.00775480
O        4.41715120       4.70524558       2.19325007        7       0.00447645      -0.00293817      -0.00775480
O        6.68793212       4.59734196       4.60059658        8       0.00000000       0.00535458      -0.00775480
O        5.53211298       1.65257382       3.62293144        9      -0.00447645       0.00829275       0.00000000
