10
Lattice="6.15247989455445 -0.006251885836422372 -0.004316839318722414 3.370773516413822 5.146934411862692 -0.0043168393187265515 3.3707735164138244 1.8195542812147922 4.814579388984153" Properties=species:S:1:pos:R:3:spacegroup_kinds:I:1:forces:R:3 spacegroup="P 1" unit_cell=conventional occupancy="_JSON {\"0\": {\"In\": 1}, \"1\": {\"In\": 1}, \"2\": {\"In\": 1}, \"3\": {\"In\": 1}, \"4\": {\"O\": 1}, \"5\": {\"O\": 1}, \"6\": {\"O\": 1}, \"7\": {\"O\": 1}, \"8\": {\"O\": 1}, \"9\": {\"O\": 1}}" n_minim_iter=7 energy=-11287.221461644724 stress="0.05320860933225627 0.00013889737891060466 9.590668818678611e-05 0.00013889737891060466 0.053026275428679506 5.177073571475297e-05 9.590668818678611e-05 5.177073571475297e-05 0.05298704514663072" free_energy=-11287.221461644724 pbc="T T T"
In      11.00704037       5.94163546       4.10261579        0      -0.00264858      -0.00142971      -0.00098720
In       8.33400003       4.49871976       3.10630278        1       0.00264858       0.00142971       0.00098720
In       4.56002691       2.46151705       1.69964294        2      -0.00264858      -0.00142971      -0.00098720
In       1.88698656       1.01860136       0.70332992        3       0.00264858       0.00142971       0.00098720
O        6.29974668       2.40522539       0.23147034        4      -0.00000000      -0.00342448       0.00495952
O        7.42643789       5.34539908       1.19716959        5       0.00286288      -0.00530356      -0.00000000
O        8.54382899       2.28000392       2.63876003        6      -0.00286288       0.00187909       0.00495952
O        4.35019795       4.68023290       2.16718569        7       0.00286288      -0.00187909      -0.00495952
O        6.59428025       4.55501143       4.57447538        8      -0.00000000       0.00342448      -0.00495952
O        5.46758904       1.61483774       3.60877612        9      -0.00286288       0.00530356      -0.00000000
