10
Lattice="5.128467497391736 -0.2926884460191203 -0.2020972591263384 2.569413151329756 4.448028940554483 -0.2020972591263382 2.5694131513297624 1.3869774035384064 4.231087146376265" Properties=species:S:1:pos:R:3:spacegroup_kinds:I:1:forces:R:3 spacegroup="P 1" unit_cell=conventional occupancy="_JSON {\"0\": {\"In\": 1}, \"1\": {\"In\": 1}, \"2\": {\"In\": 1}, \"3\": {\"In\": 1}, \"4\": {\"O\": 1}, \"5\": {\"O\": 1}, \"6\": {\"O\": 1}, \"7\": {\"O\": 1}, \"8\": {\"O\": 1}, \"9\": {\"O\": 1}}" n_minim_iter=1 energy=-11285.003045265299 stress="-0.34971989491163985 0.006986292774868596 0.0048239369905036696 0.006986292774868596 -0.35889096812754506 0.0026039765520437844 0.0048239369905036696 0.0026039765520437844 -0.3608641820046508" free_energy=-11285.003045265299 pbc="T T T"
In       8.94595794       4.82905659       3.33439572        0      -0.26125869      -0.14102828      -0.09737804
In       6.45498275       3.48442025       2.40594322        1       0.26125869       0.14102828       0.09737804
In       3.81231104       2.05789764       1.42094940        2      -0.26125869      -0.14102828      -0.09737804
In       1.32133585       0.71326130       0.49249691        3       0.26125869       0.14102828       0.09737804
O        5.13105719       1.90172273      -0.10377655        4      -0.00000000      -0.06838886       0.09904453
O        5.86192093       4.48925856       0.75462590        5       0.05717342      -0.10591532      -0.00000000
O        6.96960661       1.56920260       2.01176703        6      -0.05717342       0.03752646       0.09904453
O        3.29768718       3.97311530       1.81512560        7       0.05717342      -0.03752646      -0.09904453
O        5.13623660       3.64059516       3.93066917        8       0.00000000       0.06838886      -0.09904453
O        4.40537286       1.05305934       3.07226673        9      -0.05717342       0.10591531      -0.00000000
10
Lattice="5.111985073706848 -0.31146727925826195 -0.2150637795983255 2.544669687170418 4.444553908216902 -0.2150637795983252 2.5446696871704244 1.3736208027688863 4.232431660705437" Properties=species:S:1:pos:R:3:spacegroup_kinds:I:1:forces:R:3 spacegroup="P 1" unit_cell=conventional occupancy="_JSON {\"0\": {\"In\": 1}, \"1\": {\"In\": 1}, \"2\": {\"In\": 1}, \"3\": {\"In\": 1}, \"4\": {\"O\": 1}, \"5\": {\"O\": 1}, \"6\": {\"O\": 1}, \"7\": {\"O\": 1}, \"8\": {\"O\": 1}, \"9\": {\"O\": 1}}" n_minim_iter=2 energy=-11285.010720910663 stress="-0.3521622902263916 -0.0008219888798685813 -0.0005675717701585252 -0.0008219888798685813 -0.3510832458128956 -0.0003063770498808093 -0.0005675717701585252 -0.0003063770498808093 -0.35085108264656084" free_energy=-11285.010720910663 pbc="T T T"
In       8.88716053       4.79731757       3.31248037        0      -0.13254417      -0.07154777      -0.04940273
In       6.41482613       3.46274358       2.39097578        1       0.13254417       0.07154777       0.04940273
In       3.78649831       2.04396385       1.41132832        2      -0.13254417      -0.07154777      -0.04940273
In       1.31416391       0.70938987       0.48982373        3       0.13254417       0.07154777       0.04940273
O        5.10632364       1.88522099      -0.11899973        4      -0.00000000      -0.12263298       0.17760387
O        5.82331896       4.47200166       0.73551224        5       0.10252178      -0.18992437       0.00000000
O        6.93399801       1.54324990       1.99721610        6      -0.10252178       0.06729139       0.17760387
O        3.26732642       3.96345753       1.80508799        7       0.10252178      -0.06729139      -0.17760387
O        5.09500079       3.62148645       3.92130383        8       0.00000000       0.12263298      -0.17760387
O        4.37800547       1.03470577       3.06679185        9      -0.10252178       0.18992437      -0.00000000
10
Lattice="5.109685505407001 -0.3140974229201419 -0.21687985683814828 2.5412090505942 4.444074674938481 -0.21687985683814795 2.541209050594208 1.3717527401217458 4.2326269630927955" Properties=species:S:1:pos:R:3:spacegroup_kinds:I:1:forces:R:3 spacegroup="P 1" unit_cell=conventional occupancy="_JSON {\"0\": {\"In\": 1}, \"1\": {\"In\": 1}, \"2\": {\"In\": 1}, \"3\": {\"In\": 1}, \"4\": {\"O\": 1}, \"5\": {\"O\": 1}, \"6\": {\"O\": 1}, \"7\": {\"O\": 1}, \"8\": {\"O\": 1}, \"9\": {\"O\": 1}}" n_minim_iter=3 energy=-11285.022391526492 stress="-0.3412300510914381 -0.0009399294391186048 -0.0006490080687697784 -0.0009399294391186048 -0.3399961832906962 -0.00035033662218124 -0.0006490080687697784 -0.00035033662218124 -0.339730708900982" free_energy=-11285.022391526492 pbc="T T T"
In       8.87005858       4.78808588       3.30610602        0      -0.12069947      -0.06515396      -0.04498789
In       6.41809682       3.46450911       2.39219486        1       0.12069947       0.06515396       0.04498789
In       3.77400678       2.03722088       1.40667239        2      -0.12069947      -0.06515396      -0.04498789
In       1.32204502       0.71364411       0.49276123        3       0.12069947       0.06515396       0.04498789
O        5.10286865       1.87566440      -0.11063331        4       0.00000000       0.04388753      -0.06356036
O        5.82398330       4.45836597       0.73283695        5      -0.03669020       0.06796958       0.00000000
O        6.92296304       1.54359593       2.00568017        6       0.03669020      -0.02408205      -0.06356036
O        3.26914055       3.95813407       1.79318707        7      -0.03669020       0.02408205       0.06356036
O        5.08923495       3.62606559       3.90950056        8      -0.00000000      -0.04388753       0.06356036
O        4.36812029       1.04336403       3.06603029        9       0.03669020      -0.06796958      -0.00000000
10
Lattice="5.118978427976923 -0.3034839993595032 -0.2095514370090588 2.555181155230639 4.446019787170826 -0.20955143700905846 2.5551811552306485 1.3792949267103802 4.231849389784332" Properties=species:S:1:pos:R:3:spacegroup_kinds:I:1:forces:R:3 spacegroup="P 1" unit_cell=conventional occupancy="_JSON {\"0\": {\"In\": 1}, \"1\": {\"In\": 1}, \"2\": {\"In\": 1}, \"3\": {\"In\": 1}, \"4\": {\"O\": 1}, \"5\": {\"O\": 1}, \"6\": {\"O\": 1}, \"7\": {\"O\": 1}, \"8\": {\"O\": 1}, \"9\": {\"O\": 1}}" n_minim_iter=4 energy=-11285.025291886164 stress="-0.3372612412258769 0.00038657219970606257 0.0002669226722049636 0.00038657219970606257 -0.337768703779236 0.0001440857098366663 0.0002669226722049636 0.0001440857098366663 -0.33787788752687387" free_energy=-11285.025291886164 pbc="T T T"
In       8.89538568       4.80175753       3.31554610        0      -0.00704116      -0.00380084      -0.00262443
In       6.44862541       3.48098854       2.40357367        1       0.00704116       0.00380084       0.00262443
In       3.78071531       2.04084217       1.40917284        2      -0.00704116      -0.00380084      -0.00262443
In       1.33395504       0.72007318       0.49720041        3       0.00704116       0.00380084       0.00262443
O        5.11682439       1.88484821      -0.10183657        4      -0.00000000       0.00729375      -0.01056321
O        5.84588491       4.46789235       0.74363519        5      -0.00609761       0.01129598      -0.00000000
O        6.94294503       1.55832889       2.01408813        6       0.00609761      -0.00400224      -0.01056321
O        3.28639569       3.96350182       1.79865838        7      -0.00609761       0.00400224       0.01056321
O        5.11251633       3.63698251       3.91458308        8       0.00000000      -0.00729375       0.01056321
O        4.38345582       1.05393836       3.06911132        9       0.00609761      -0.01129598      -0.00000000
10
Lattice="5.118228552626283 -0.30433891636328314 -0.21014174518689893 2.554054967366681 4.44586199927547 -0.21014174518689863 2.5540549673666892 1.378687006914125 4.231910987560817" Properties=species:S:1:pos:R:3:spacegroup_kinds:I:1:forces:R:3 spacegroup="P 1" unit_cell=conventional occupancy="_JSON {\"0\": {\"In\": 1}, \"1\": {\"In\": 1}, \"2\": {\"In\": 1}, \"3\": {\"In\": 1}, \"4\": {\"O\": 1}, \"5\": {\"O\": 1}, \"6\": {\"O\": 1}, \"7\": {\"O\": 1}, \"8\": {\"O\": 1}, \"9\": {\"O\": 1}}" n_minim_iter=5 energy=-11285.02531660974 stress="-0.33763705645651865 1.4167606492741964e-05 9.782533805053398e-06 1.4167606492741964e-05 -0.33765565460934127 5.280642375856949e-06 9.782533805053398e-06 5.280642375856949e-06 -0.3376596561192593" free_energy=-11285.02531660974 pbc="T T T"
In       8.89292907       4.80043144       3.31463045        0      -0.00020165      -0.00010885      -0.00007516
In       6.44657865       3.47988369       2.40281079        1       0.00020165       0.00010885       0.00007516
In       3.77975982       2.04032639       1.40881670        2      -0.00020165      -0.00010885      -0.00007516
In       1.33340941       0.71977865       0.49699704        3       0.00020165       0.00010885       0.00007516
O        5.11569889       1.88427860      -0.10279238        4       0.00000000       0.00038005      -0.00055040
O        5.84397643       4.46738817       0.74276513        5      -0.00031772       0.00058859       0.00000000
O        6.94147632       1.55704800       2.01316311        6       0.00031772      -0.00020854      -0.00055040
O        3.28486216       3.96316209       1.79846438        7      -0.00031772       0.00020854       0.00055040
O        5.11063958       3.63593149       3.91441987        8       0.00000000      -0.00038005       0.00055040
O        4.38236204       1.05282192       3.06886237        9       0.00031772      -0.00058859      -0.00000000
