10
Lattice="6.0277946733221786 -0.04166364749819187 -0.028768163141089615 3.27275160237473 5.062128152507373 -0.028768163141090496 3.2727516023747283 1.7666417397835144 4.7439378160841175" Properties=species:S:1:pos:R:3:spacegroup_kinds:I:1:forces:R:3 spacegroup="P 1" unit_cell=conventional occupancy="_JSON {\"0\": {\"In\": 1}, \"1\": {\"In\": 1}, \"2\": {\"In\": 1}, \"3\": {\"In\": 1}, \"4\": {\"O\": 1}, \"5\": {\"O\": 1}, \"6\": {\"O\": 1}, \"7\": {\"O\": 1}, \"8\": {\"O\": 1}, \"9\": {\"O\": 1}}" n_minim_iter=4 energy=-11287.388972185887 stress="0.04587156452681034 8.389231786151057e-06 5.792648269423538e-06 8.389231786151057e-06 0.04586055178149652 3.126889465935611e-06 5.792648269423538e-06 3.126889465935611e-06 0.045858182319307605" free_energy=-11287.388972185887 pbc="T T T"
In      10.75363003       5.80484375       4.00816304        0      -0.00115653      -0.00062430      -0.00043107
In       8.10631679       4.37581563       3.02143920        1       0.00115653       0.00062430       0.00043107
In       4.46698109       2.41129063       1.66496229        2      -0.00115653      -0.00062430      -0.00043107
In       1.81966786       0.98226251       0.67823846        3       0.00115653       0.00062430       0.00043107
O        6.15722181       2.33572748       0.20168239        4      -0.00000000       0.00498588      -0.00722083
O        7.24201596       5.22882876       1.14283221        5      -0.00416822       0.00772174      -0.00000000
O        8.34517927       2.19722841       2.57365129        6       0.00416822      -0.00273586      -0.00722083
O        4.22811862       4.58987784       2.11275020        7      -0.00416822       0.00273586       0.00722083
O        6.41607608       4.45137878       4.48471911        8       0.00000000      -0.00498588       0.00722083
O        5.33128193       1.55827750       3.54356928        9       0.00416822      -0.00772174      -0.00000000
