10
Lattice="6.330816894093063 0.08601558267461272 0.0593925511482515 3.5457669876616382 5.245395856959314 0.05939255114825596 3.5457669876616387 1.9140163144077953 4.884080949320826" Properties=species:S:1:pos:R:3:spacegroup_kinds:I:1:forces:R:3 spacegroup="P 1" unit_cell=conventional occupancy="_JSON {\"0\": {\"In\": 1}, \"1\": {\"In\": 1}, \"2\": {\"In\": 1}, \"3\": {\"In\": 1}, \"4\": {\"O\": 1}, \"5\": {\"O\": 1}, \"6\": {\"O\": 1}, \"7\": {\"O\": 1}, \"8\": {\"O\": 1}, \"9\": {\"O\": 1}}" n_minim_iter=5 energy=-11286.614891784646 stress="0.07271152169174404 -4.762583924238967e-05 -3.288497311208365e-05 -4.762583924238967e-05 0.07277404126847288 -1.775141307731352e-05 -3.288497311208365e-05 -1.775141307731352e-05 0.07278749274763613" free_energy=-11286.614891784646 pbc="T T T"
In      11.41947489       6.16426892       4.25634107        0      -0.00400377      -0.00216125      -0.00149231
In       8.71405143       4.70387272       3.24795801        1       0.00400377       0.00216125       0.00149231
In       4.70829945       2.54155504       1.75490804        2      -0.00400377      -0.00216125      -0.00149231
In       2.00287599       1.08115884       0.74652499        3       0.00400377       0.00216125       0.00149231
O        6.52099617       2.53356117       0.29676290        4       0.00000000       0.00026374      -0.00038196
O        7.72606806       5.52894901       1.31010907        5      -0.00022048       0.00040845       0.00000000
O        8.86169127       2.43868297       2.73880337        6       0.00022048      -0.00014472      -0.00038196
O        4.56065961       4.80674479       2.26406269        7      -0.00022048       0.00014472       0.00038196
O        6.90135471       4.71186660       4.70610316        8      -0.00000000      -0.00026374       0.00038196
O        5.69628282       1.71647875       3.69275699        9       0.00022048      -0.00040845       0.00000000
