10
Lattice="5.773079680622911 0.04680415687974198 0.03231761263475659 3.206943446944687 4.800640931794505 0.032317612634756965 3.206943446944692 1.7311182878611229 4.477770344439294" Properties=species:S:1:pos:R:3:spacegroup_kinds:I:1:forces:R:3 spacegroup="P 1" unit_cell=conventional occupancy="_JSON {\"0\": {\"In\": 1}, \"1\": {\"In\": 1}, \"2\": {\"In\": 1}, \"3\": {\"In\": 1}, \"4\": {\"O\": 1}, \"5\": {\"O\": 1}, \"6\": {\"O\": 1}, \"7\": {\"O\": 1}, \"8\": {\"O\": 1}, \"9\": {\"O\": 1}}" n_minim_iter=5 energy=-11287.599559856777 stress="-0.029463010209613665 -0.0001700069554238641 -0.00011738741441506037 -0.0001700069554238641 -0.029239838025325676 -6.336609988808102e-05 -0.00011738741441506037 -6.336609988808102e-05 -0.029191821130032252" free_energy=-11287.599559856777 pbc="T T T"
In      10.43903981       5.63502694       3.89090692        0      -0.00502801      -0.00271414      -0.00187407
In       7.84141006       4.23281813       2.92270144        1       0.00502801       0.00271414       0.00187407
In       4.34555652       2.34574526       1.61970413        2      -0.00502801      -0.00271414      -0.00187407
In       1.74792678       0.94353644       0.65149865        3       0.00502801       0.00271414       0.00187407
O        5.93328149       2.29725538       0.24049988        4       0.00000000      -0.00264647       0.00383276
O        7.01072847       5.04283846       1.16791901        5       0.00221246      -0.00409864       0.00000000
O        8.06277796       2.18833946       2.47938505        6      -0.00221246       0.00145217       0.00383276
O        4.12418863       4.39022393       2.06302052        7       0.00221246      -0.00145217      -0.00383276
O        6.25368510       4.28130801       4.30190570        8      -0.00000000       0.00264647      -0.00383276
O        5.17623812       1.53572493       3.37448657        9      -0.00221246       0.00409864       0.00000000
