10
Lattice="6.107569681101001 -0.006206250006283564 -0.004285328419284993 3.3461684529727593 5.10936420813521 -0.0042853284192891 3.3461684529727616 1.806272389593851 4.779435220818852" Properties=species:S:1:pos:R:3:spacegroup_kinds:I:1:forces:R:3 spacegroup="P 1" unit_cell=conventional occupancy="_JSON {\"0\": {\"In\": 1}, \"1\": {\"In\": 1}, \"2\": {\"In\": 1}, \"3\": {\"In\": 1}, \"4\": {\"O\": 1}, \"5\": {\"O\": 1}, \"6\": {\"O\": 1}, \"7\": {\"O\": 1}, \"8\": {\"O\": 1}, \"9\": {\"O\": 1}}" n_minim_iter=7 energy=-11287.221461644724 stress="0.05320860933225627 0.00013889737891060466 9.590668818678611e-05 0.00013889737891060466 0.053026275428679506 5.177073571475297e-05 9.590668818678611e-05 5.177073571475297e-05 0.05298704514663072" free_energy=-11287.221461644724 pbc="T T T"
In      10.92669415       5.89826431       4.07266862        0      -0.00264858      -0.00142971      -0.00098720
In       8.27316574       4.46588122       3.08362823        1       0.00264858       0.00142971       0.00098720
In       4.52674086       2.44354914       1.68723634        2      -0.00264858      -0.00142971      -0.00098720
In       1.87321245       1.01116605       0.69819595        3       0.00264858       0.00142971       0.00098720
O        6.25376149       2.38766837       0.22978071        4      -0.00000000      -0.00342448       0.00495952
O        7.37222839       5.30638018       1.18843081        5       0.00286288      -0.00530356      -0.00000000
O        8.48146305       2.26336096       2.61949832        6      -0.00286288       0.00187909       0.00495952
O        4.31844355       4.64606940       2.15136625        7       0.00286288      -0.00187909      -0.00495952
O        6.54614510       4.52176199       4.54108386        8      -0.00000000       0.00342448      -0.00495952
O        5.42767821       1.60305018       3.58243375        9      -0.00286288       0.00530356      -0.00000000
