10
Lattice="5.805019090078026 0.027198601253728763 0.01878025197171526 3.2080789564070615 4.838100434006996 0.018780251971714765 3.2080789564070615 1.7317312394858935 4.517596199483907" Properties=species:S:1:pos:R:3:spacegroup_kinds:I:1:forces:R:3 spacegroup="P 1" unit_cell=conventional occupancy="_JSON {\"0\": {\"In\": 1}, \"1\": {\"In\": 1}, \"2\": {\"In\": 1}, \"3\": {\"In\": 1}, \"4\": {\"O\": 1}, \"5\": {\"O\": 1}, \"6\": {\"O\": 1}, \"7\": {\"O\": 1}, \"8\": {\"O\": 1}, \"9\": {\"O\": 1}}" n_minim_iter=5 energy=-11287.665570604566 stress="-0.012343983912489587 -0.0002669775766840653 -0.0001843442659772037 -0.0002669775766840653 -0.011993516076434379 -9.950962238397071e-05 -0.0001843442659772037 -9.950962238397071e-05 -0.011918110724321125" free_energy=-11287.665570604566 pbc="T T T"
In      10.47155403       5.65257822       3.90302583        0      -0.00827963      -0.00446937      -0.00308604
In       7.86021148       4.24296720       2.92970923        1       0.00827963       0.00446937       0.00308604
In       4.36096553       2.35406309       1.62544748        2      -0.00827963      -0.00446937      -0.00308604
In       1.74962298       0.94445206       0.65213088        3       0.00827963       0.00446937       0.00308604
O        5.95780380       2.29773720       0.22871044        4       0.00000000      -0.00342586       0.00496152
O        7.03108016       5.06516013       1.15756943        5       0.00286404      -0.00530571      -0.00000000
O        8.09260640       2.18034979       2.48750854        6      -0.00286404       0.00187984       0.00496152
O        4.12857061       4.41668050       2.06764816        7       0.00286404      -0.00187984      -0.00496152
O        6.26337321       4.29929308       4.32644626        8       0.00000000       0.00342586      -0.00496152
O        5.19009685       1.53187016       3.39758728        9      -0.00286404       0.00530571       0.00000000
