10
Lattice="6.073118139601455 -0.041976919768533696 -0.028984473241666205 3.2973596812708417 5.100190695619031 -0.02898447324167048 3.2973596812708412 1.7799252591566967 4.779607860817037" Properties=species:S:1:pos:R:3:spacegroup_kinds:I:1:forces:R:3 spacegroup="P 1" unit_cell=conventional occupancy="_JSON {\"0\": {\"In\": 1}, \"1\": {\"In\": 1}, \"2\": {\"In\": 1}, \"3\": {\"In\": 1}, \"4\": {\"O\": 1}, \"5\": {\"O\": 1}, \"6\": {\"O\": 1}, \"7\": {\"O\": 1}, \"8\": {\"O\": 1}, \"9\": {\"O\": 1}}" n_minim_iter=1 energy=-11287.211924136254 stress="0.05869574230514843 -0.001970490654500985 -0.0013605961072864338 -0.001970490654500985 0.06128245240121361 -0.0007344541127056626 -0.0013605961072864338 -0.0007344541127056626 0.06183899929103533" free_energy=-11287.211924136254 pbc="T T T"
In      10.83448743       5.84849083       4.03830073        0      -0.09012194      -0.04864811      -0.03359084
In       8.16726883       4.40871774       3.04415764        1       0.09012194       0.04864811       0.03359084
In       4.50056868       2.42942131       1.67748128        2      -0.09012194      -0.04864811      -0.03359084
In       1.83335008       0.98964822       0.68333819        3       0.09012194       0.04864811       0.03359084
O        6.20351845       2.35329000       0.20319885        4       0.00000000       0.02159491      -0.03127494
O        7.29646925       5.26814473       1.15142526        5      -0.01805345       0.03344450       0.00000000
O        8.40792733       2.21374955       2.59300278        6       0.01805345      -0.01184960      -0.03127494
O        4.25991018       4.62438950       2.12863614        7      -0.01805345       0.01184960       0.03127494
O        6.46431906       4.48484905       4.51844007        8      -0.00000000      -0.02159491       0.03127494
O        5.37136826       1.56999431       3.57021366        9       0.01805345      -0.03344450       0.00000000
10
Lattice="6.097733904300999 -0.016383908386660175 -0.011312858514763768 3.33226277422442 5.106726153186021 -0.011312858514768044 3.33226277422442 1.7987660599112048 4.779458195874658" Properties=species:S:1:pos:R:3:spacegroup_kinds:I:1:forces:R:3 spacegroup="P 1" unit_cell=conventional occupancy="_JSON {\"0\": {\"In\": 1}, \"1\": {\"In\": 1}, \"2\": {\"In\": 1}, \"3\": {\"In\": 1}, \"4\": {\"O\": 1}, \"5\": {\"O\": 1}, \"6\": {\"O\": 1}, \"7\": {\"O\": 1}, \"8\": {\"O\": 1}, \"9\": {\"O\": 1}}" n_minim_iter=2 energy=-11287.214756447289 stress="0.058005895156263976 0.0004965616994591255 0.0003428688761199079 0.0004965616994591255 0.05735404676617893 0.00018508171084918634 0.0003428688761199079 0.00018508171084918634 0.05721379749977856" free_energy=-11287.214756447289 pbc="T T T"
In      10.91394713       5.89138343       4.06791747        0      -0.11654328      -0.06291044      -0.04343877
In       8.22944206       4.44227904       3.06733125        1       0.11654328       0.06291044       0.04343877
In       4.53281740       2.44682928       1.68950123        2      -0.11654328      -0.06291044      -0.04343877
In       1.84831233       0.99772489       0.68891501        3       0.11654328       0.06291044       0.04343877
O        6.23943182       2.37667255       0.22395588        4      -0.00000000       0.01920438      -0.02781284
O        7.35163682       5.29361182       1.17789526        5      -0.01605495       0.02974224       0.00000000
O        8.45948960       2.24989196       2.61368498        6       0.01605495      -0.01053786      -0.02781284
O        4.30276987       4.63921635       2.14314750        7      -0.01605495       0.01053786       0.02781284
O        6.52282764       4.51243577       4.53287660        8      -0.00000000      -0.01920438       0.02781284
O        5.41062264       1.59549650       3.57893722        9       0.01605495      -0.02974224      -0.00000000
10
Lattice="6.094084334479277 -0.020167336495440107 -0.013925262459250114 3.3270972107738506 5.1057511442752315 -0.013925262459254373 3.327097210773852 1.7959776723065193 4.779472027408356" Properties=species:S:1:pos:R:3:spacegroup_kinds:I:1:forces:R:3 spacegroup="P 1" unit_cell=conventional occupancy="_JSON {\"0\": {\"In\": 1}, \"1\": {\"In\": 1}, \"2\": {\"In\": 1}, \"3\": {\"In\": 1}, \"4\": {\"O\": 1}, \"5\": {\"O\": 1}, \"6\": {\"O\": 1}, \"7\": {\"O\": 1}, \"8\": {\"O\": 1}, \"9\": {\"O\": 1}}" n_minim_iter=3 energy=-11287.219561372693 stress="0.05594550877511562 -0.0004503099497328358 -0.00031093269308448584 -0.0004503099497328358 0.05653664139068206 -0.0001678424578223028 -0.00031093269308448584 -0.0001678424578223028 0.056663827277973935" free_energy=-11287.219561372693 pbc="T T T"
In      10.89280127       5.87996883       4.06003585        0      -0.05308856      -0.02865737      -0.01978751
In       8.22961687       4.44237341       3.06739641        1       0.05308856       0.02865737       0.01978751
In       4.51866189       2.43918809       1.68422510        2      -0.05308856      -0.02865737      -0.01978751
In       1.85547750       1.00159267       0.69158566        3       0.05308856       0.02865737       0.01978751
O        6.23411186       2.37484171       0.21852635        4       0.00000000       0.00136556      -0.00197767
O        7.34210589       5.29236215       1.17398012        5      -0.00114161       0.00211487       0.00000000
O        8.45321504       2.24365067       2.60826236        6       0.00114161      -0.00074931      -0.00197767
O        4.29506373       4.63791082       2.14335915        7      -0.00114161       0.00074931       0.00197767
O        6.51416690       4.50671978       4.53309516        8       0.00000000      -0.00136556       0.00197767
O        5.40617287       1.58919934       3.57764139        9       0.00114161      -0.00211487       0.00000000
10
Lattice="6.1021299272000515 -0.011831691795064795 -0.008169616925887501 3.3384806437898886 5.107903349555612 -0.00816961692589173 3.3384806437898895 1.8021224857086633 4.779445356685801" Properties=species:S:1:pos:R:3:spacegroup_kinds:I:1:forces:R:3 spacegroup="P 1" unit_cell=conventional occupancy="_JSON {\"0\": {\"In\": 1}, \"1\": {\"In\": 1}, \"2\": {\"In\": 1}, \"3\": {\"In\": 1}, \"4\": {\"O\": 1}, \"5\": {\"O\": 1}, \"6\": {\"O\": 1}, \"7\": {\"O\": 1}, \"8\": {\"O\": 1}, \"9\": {\"O\": 1}}" n_minim_iter=4 energy=-11287.221200984915 stress="0.05357516335586689 -0.0002629691286677145 -0.00018157648713628942 -0.0002629691286677145 0.05392036920589981 -9.801556692539898e-05 -0.00018157648713628942 -9.801556692539898e-05 0.053994642406498226" free_energy=-11287.221200984915 pbc="T T T"
In      10.91055701       5.88955343       4.06665388        0      -0.00573442      -0.00309546      -0.00213737
In       8.25807982       4.45773780       3.07800531        1       0.00573442       0.00309546       0.00213737
In       4.52101140       2.44045636       1.68510082        2      -0.00573442      -0.00309546      -0.00213737
In       1.86853422       1.00864073       0.69645225        3       0.00573442       0.00309546       0.00213737
O        6.24583777       2.38366213       0.22355926        4      -0.00000000      -0.01476733       0.02138687
O        7.35911017       5.30252998       1.18260692        5       0.01234556      -0.02287049       0.00000000
O        8.47104601       2.25477776       2.61328194        6      -0.01234556       0.00810316       0.02138687
O        4.30804521       4.64341639       2.14982419        7       0.01234556      -0.00810316      -0.02138687
O        6.53325345       4.51453203       4.53954686        8       0.00000000       0.01476733      -0.02138687
O        5.41998105       1.59566418       3.58049921        9      -0.01234556       0.02287049       0.00000000
10
Lattice="6.104903978063789 -0.008961901499021848 -0.006188067052682968 3.3424019850953104 5.1086477532795715 -0.00618806705268719 3.3424019850953113 1.8042392382361294 4.779439394999317" Properties=species:S:1:pos:R:3:spacegroup_kinds:I:1:forces:R:3 spacegroup="P 1" unit_cell=conventional occupancy="_JSON {\"0\": {\"In\": 1}, \"1\": {\"In\": 1}, \"2\": {\"In\": 1}, \"3\": {\"In\": 1}, \"4\": {\"O\": 1}, \"5\": {\"O\": 1}, \"6\": {\"O\": 1}, \"7\": {\"O\": 1}, \"8\": {\"O\": 1}, \"9\": {\"O\": 1}}" n_minim_iter=5 energy=-11287.221305836256 stress="0.05339094434091351 -3.4790920883527884e-05 -2.4022641925571307e-05 -3.4790920883527884e-05 0.05343661521382105 -1.2967498501429886e-05 -2.4022641925571307e-05 -1.2967498501429886e-05 0.05344644158715904" free_energy=-11287.221305836256 pbc="T T T"
In      10.91903902       5.89413205       4.06981535        0      -0.00573400      -0.00309523      -0.00213721
In       8.26552292       4.46175560       3.08077954        1       0.00573400       0.00309523       0.00213721
In       4.52418504       2.44216950       1.68628372        2      -0.00573400      -0.00309523      -0.00213721
In       1.87066894       1.00979306       0.69724791        3       0.00573400       0.00309523       0.00213721
O        6.24987898       2.38611352       0.22614214        4      -0.00000000      -0.01351086       0.01956718
O        7.36546003       5.30512517       1.18557775        5       0.01129515      -0.02092457      -0.00000000
O        8.47669992       2.25893217       2.61586184        6      -0.01129515       0.00741371       0.01956718
O        4.31300804       4.64499293       2.15120143        7       0.01129515      -0.00741371      -0.01956718
O        6.53982898       4.51781158       4.54092112        8      -0.00000000       0.01351087      -0.01956718
O        5.42424793       1.59879993       3.58148552        9      -0.01129515       0.02092457      -0.00000000
10
Lattice="6.106983685112883 -0.0068118470631121164 -0.004703484677192203 3.3453406220137527 5.109206616902462 -0.0047034846771963415 3.345340622013755 1.8058255238052574 4.779436007997339" Properties=species:S:1:pos:R:3:spacegroup_kinds:I:1:forces:R:3 spacegroup="P 1" unit_cell=conventional occupancy="_JSON {\"0\": {\"In\": 1}, \"1\": {\"In\": 1}, \"2\": {\"In\": 1}, \"3\": {\"In\": 1}, \"4\": {\"O\": 1}, \"5\": {\"O\": 1}, \"6\": {\"O\": 1}, \"7\": {\"O\": 1}, \"8\": {\"O\": 1}, \"9\": {\"O\": 1}}" n_minim_iter=6 energy=-11287.22139796341 stress="0.05326852257268231 0.0001238635268085831 8.552602503037653e-05 0.0001238635268085831 0.05310592396448753 4.616722124979179e-05 8.552602503037653e-05 4.616722124979179e-05 0.05307093985448546" free_energy=-11287.22139796341 pbc="T T T"
In      10.92528497       5.89750363       4.07214338        0      -0.00508253      -0.00274357      -0.00189439
In       8.27121243       4.46482682       3.08290018        1       0.00508253       0.00274357       0.00189439
In       4.52645251       2.44339348       1.68712886        2      -0.00508253      -0.00274357      -0.00189439
In       1.87237997       1.01071667       0.69788566        3       0.00508253       0.00274357       0.00189439
O        6.25290808       2.38764720       0.22851676        4      -0.00000000      -0.00918721       0.01330543
O        7.37047271       5.30660075       1.18780378        5       0.00768055      -0.01422843       0.00000000
O        8.48068407       2.26221168       2.61823477        6      -0.00768055       0.00504122       0.01330543
O        4.31698087       4.64600862       2.15179427        7       0.00768055      -0.00504122      -0.01330543
O        6.54475686       4.52057310       4.54151228        8      -0.00000000       0.00918721      -0.01330543
O        5.42719223       1.60161956       3.58222527        9      -0.00768055       0.01422843       0.00000000
10
Lattice="6.107569681101001 -0.006206250006283564 -0.004285328419284993 3.3461684529727593 5.10936420813521 -0.0042853284192891 3.3461684529727616 1.806272389593851 4.779435220818852" Properties=species:S:1:pos:R:3:spacegroup_kinds:I:1:forces:R:3 spacegroup="P 1" unit_cell=conventional occupancy="_JSON {\"0\": {\"In\": 1}, \"1\": {\"In\": 1}, \"2\": {\"In\": 1}, \"3\": {\"In\": 1}, \"4\": {\"O\": 1}, \"5\": {\"O\": 1}, \"6\": {\"O\": 1}, \"7\": {\"O\": 1}, \"8\": {\"O\": 1}, \"9\": {\"O\": 1}}" n_minim_iter=7 energy=-11287.221461644724 stress="0.05320860933225627 0.00013889737891060466 9.590668818678611e-05 0.00013889737891060466 0.053026275428679506 5.177073571475297e-05 9.590668818678611e-05 5.177073571475297e-05 0.05298704514663072" free_energy=-11287.221461644724 pbc="T T T"
In      10.92669415       5.89826431       4.07266862        0      -0.00264858      -0.00142971      -0.00098720
In       8.27316574       4.46588122       3.08362823        1       0.00264858       0.00142971       0.00098720
In       4.52674086       2.44354914       1.68723634        2      -0.00264858      -0.00142971      -0.00098720
In       1.87321245       1.01116605       0.69819595        3       0.00264858       0.00142971       0.00098720
O        6.25376149       2.38766837       0.22978071        4      -0.00000000      -0.00342448       0.00495952
O        7.37222839       5.30638018       1.18843081        5       0.00286288      -0.00530356      -0.00000000
O        8.48146305       2.26336096       2.61949832        6      -0.00286288       0.00187909       0.00495952
O        4.31844355       4.64606940       2.15136625        7       0.00286288      -0.00187909      -0.00495952
O        6.54614510       4.52176199       4.54108386        8      -0.00000000       0.00342448      -0.00495952
O        5.42767821       1.60305018       3.58243375        9      -0.00286288       0.00530356      -0.00000000
