10
Lattice="5.223028061204074 -0.3140914989190995 -0.21687576639867104 2.603407539516159 4.538826366034387 -0.21687576639865175 2.6034075395161596 1.405327682565029 4.321230609869863" Properties=species:S:1:pos:R:3:spacegroup_kinds:I:1:forces:R:3 spacegroup="P 1" unit_cell=conventional occupancy="_JSON {\"0\": {\"In\": 1}, \"1\": {\"In\": 1}, \"2\": {\"In\": 1}, \"3\": {\"In\": 1}, \"4\": {\"O\": 1}, \"5\": {\"O\": 1}, \"6\": {\"O\": 1}, \"7\": {\"O\": 1}, \"8\": {\"O\": 1}, \"9\": {\"O\": 1}}" n_minim_iter=7 energy=-11286.181938464237 stress="-0.16393590149801598 -2.9116742874747544e-05 -2.010470221621226e-05 -2.9116742874747544e-05 -0.16389767925762339 -1.085258234962309e-05 -2.010470221621226e-05 -1.085258234962309e-05 -0.16388945550014455" free_energy=-11286.181938464237 pbc="T T T"
In       9.10349051       4.91409318       3.39311228        0       0.00118195       0.00063802       0.00044055
In       6.54127419       3.53100065       2.43810633        1      -0.00118195      -0.00063802      -0.00044055
In       3.88856894       2.09906190       1.44937275        2       0.00118195       0.00063802       0.00044055
In       1.32635262       0.71596937       0.49436679        3      -0.00118195      -0.00063802      -0.00044055
O        5.21897481       1.93142552      -0.12276579        4      -0.00000000      -0.00005610       0.00008125
O        5.95139627       4.57449394       0.75499400        5       0.00004690      -0.00008688       0.00000000
O        7.08996088       1.57947850       2.03784952        6      -0.00004690       0.00003078       0.00008125
O        3.33988224       4.05058405       1.84962956        7       0.00004690      -0.00003078      -0.00008125
O        5.21086832       3.69863703       4.01024486        8       0.00000000       0.00005610      -0.00008125
O        4.47844685       1.05556861       3.13248507        9      -0.00004690       0.00008688       0.00000000
