10
Lattice="5.917223165431155 -0.009821567292978313 -0.0067816542034099935 3.238698738271889 4.9522173756222845 -0.006781654203407334 3.238698738271889 1.7482598952708959 4.633367054835647" Properties=species:S:1:pos:R:3:spacegroup_kinds:I:1:forces:R:3 spacegroup="P 1" unit_cell=conventional occupancy="_JSON {\"0\": {\"In\": 1}, \"1\": {\"In\": 1}, \"2\": {\"In\": 1}, \"3\": {\"In\": 1}, \"4\": {\"O\": 1}, \"5\": {\"O\": 1}, \"6\": {\"O\": 1}, \"7\": {\"O\": 1}, \"8\": {\"O\": 1}, \"9\": {\"O\": 1}}" n_minim_iter=6 energy=-11287.667299002624 stress="0.00952427093250547 1.0311969837021672e-06 7.120260828574377e-07 1.0311969837021672e-06 0.009522917256011128 3.8435423479754354e-07 7.120260828574377e-07 3.8435423479754354e-07 0.009522626006780768" free_energy=-11287.667299002624 pbc="T T T"
In      10.61991274       5.73266273       3.95832306        0      -0.00001720      -0.00000929      -0.00000641
In       7.97201824       4.30332084       2.97138257        1       0.00001720       0.00000929       0.00000641
In       4.42260241       2.38733487       1.64842118        2      -0.00001720      -0.00000929      -0.00000641
In       1.77470792       0.95799299       0.66148070        3       0.00001720       0.00000929       0.00000641
O        6.05726675       2.31709424       0.21114838        4       0.00000000      -0.00002592       0.00003754
O        7.13376373       5.14951057       1.14816928        5       0.00002167      -0.00004014       0.00000000
O        8.21946850       2.18557545       2.52783190        6      -0.00002167       0.00001422       0.00003754
O        4.17515215       4.50508026       2.09197185        7       0.00002167      -0.00001422      -0.00003754
O        6.33735390       4.37356148       4.40865537        8      -0.00000000       0.00002592      -0.00003754
O        5.26085692       1.54114515       3.47163447        9      -0.00002167       0.00004014       0.00000000
