10
Lattice="5.832720015416356 0.004093480057475147 0.002826490458220302 3.2039630627772797 4.873936830445834 0.0028264904582204695 3.2039630627772797 1.7295094669940232 4.556760386481031" Properties=species:S:1:pos:R:3:spacegroup_kinds:I:1:forces:R:3 spacegroup="P 1" unit_cell=conventional occupancy="_JSON {\"0\": {\"In\": 1}, \"1\": {\"In\": 1}, \"2\": {\"In\": 1}, \"3\": {\"In\": 1}, \"4\": {\"O\": 1}, \"5\": {\"O\": 1}, \"6\": {\"O\": 1}, \"7\": {\"O\": 1}, \"8\": {\"O\": 1}, \"9\": {\"O\": 1}}" n_minim_iter=1 energy=-11287.66167386797 stress="-0.015335580558485436 -0.0018740154339007761 -0.0012939813241323154 -0.0018740154339007761 -0.012875515781368595 -0.0006984952400737961 -0.0012939813241323154 -0.0006984952400737961 -0.0123462174317456" free_energy=-11287.66167386797 pbc="T T T"
In      10.49226309       5.66375704       3.91074465        0       0.02260252       0.01220091       0.00842456
In       7.86870613       4.24755264       2.93287541        1      -0.02260252      -0.01220091      -0.00842456
In       4.37194002       2.35998715       1.62953797        2       0.02260252       0.01220091       0.00842456
In       1.74838306       0.94378275       0.65166872        3      -0.02260252      -0.01220091      -0.00842456
O        5.97652155       2.29399457       0.21504207        4      -0.00000000       0.03463653      -0.05016254
O        7.04340732       5.08217947       1.14342983        5      -0.02895631       0.05364235      -0.00000000
O        8.11359884       2.16746994       2.49342226        6       0.02895631      -0.01900582      -0.05016254
O        4.12704731       4.44006985       2.06899111        7      -0.02895631       0.01900582       0.05016254
O        6.26412460       4.31354522       4.34737131        8      -0.00000000      -0.03463653       0.05016254
O        5.19723883       1.52536031       3.41898354        9       0.02895631      -0.05364235      -0.00000000
10
Lattice="5.852415022750426 0.024333113961837745 0.016801673262412234 3.2316905784055288 4.879296025493322 0.0168016732624124 3.2316905784055288 1.7444768682516754 4.556820432796772" Properties=species:S:1:pos:R:3:spacegroup_kinds:I:1:forces:R:3 spacegroup="P 1" unit_cell=conventional occupancy="_JSON {\"0\": {\"In\": 1}, \"1\": {\"In\": 1}, \"2\": {\"In\": 1}, \"3\": {\"In\": 1}, \"4\": {\"O\": 1}, \"5\": {\"O\": 1}, \"6\": {\"O\": 1}, \"7\": {\"O\": 1}, \"8\": {\"O\": 1}, \"9\": {\"O\": 1}}" n_minim_iter=2 energy=-11287.663163393629 stress="-0.011800312126505435 0.0007303768138891346 0.0005043149288939505 0.0007303768138891346 -0.012759095199574511 0.000272230803523956 0.0005043149288939505 0.000272230803523956 -0.012965383385735916" free_energy=-11287.663163393629 pbc="T T T"
In      10.55700401       5.69870440       3.93487531        0      -0.03964952      -0.02140294      -0.01477843
In       7.91669027       4.27345463       2.95076037        1       0.03964952       0.02140294       0.01477843
In       4.39910592       2.37465139       1.63966342        2      -0.03964952      -0.02140294      -0.01477843
In       1.75879218       0.94940162       0.65554848        3       0.03964952       0.02140294       0.01477843
O        6.00515656       2.31279345       0.23115033        4      -0.00000000       0.02911302      -0.04216309
O        7.08712875       5.10285544       1.16440762        5      -0.02433863       0.04508797      -0.00000000
O        8.15487495       2.19601752       2.50956055        6       0.02433863      -0.01597495      -0.04216309
O        4.16092123       4.45208850       2.08086323        7      -0.02433863       0.01597495       0.04216309
O        6.31063963       4.33531257       4.35927345        8       0.00000000      -0.02911302       0.04216309
O        5.22866744       1.54525058       3.42601616        9       0.02433863      -0.04508797      -0.00000000
10
Lattice="5.847970399275805 0.019775365659909252 0.013654612105282505 3.2254414161051073 4.878081234170556 0.013654612105282661 3.225441416105107 1.7411035505362094 4.5567994691349805" Properties=species:S:1:pos:R:3:spacegroup_kinds:I:1:forces:R:3 spacegroup="P 1" unit_cell=conventional occupancy="_JSON {\"0\": {\"In\": 1}, \"1\": {\"In\": 1}, \"2\": {\"In\": 1}, \"3\": {\"In\": 1}, \"4\": {\"O\": 1}, \"5\": {\"O\": 1}, \"6\": {\"O\": 1}, \"7\": {\"O\": 1}, \"8\": {\"O\": 1}, \"9\": {\"O\": 1}}" n_minim_iter=3 energy=-11287.66359169041 stress="-0.012608801888350328 7.918322381687099e-05 5.4674905305718715e-05 7.918322381687099e-05 -0.01271274759745213 2.9513686962565277e-05 5.4674905305718715e-05 2.9513686962565277e-05 -0.012735112167585619" free_energy=-11287.66359169041 pbc="T T T"
In      10.54206762       5.69064169       3.92930812        0      -0.01732254      -0.00935076      -0.00645657
In       7.90621223       4.26779855       2.94685493        1       0.01732254       0.00935076       0.00645657
In       4.39264101       2.37116161       1.63725377        2      -0.01732254      -0.00935076      -0.00645657
In       1.75678562       0.94831848       0.65480058        3       0.01732254       0.00935076       0.00645657
O        5.99869851       2.30901870       0.22685305        4       0.00000000       0.02288225      -0.03313935
O        7.07688518       5.09890711       1.15968179        5      -0.01912968       0.03543825       0.00000000
O        8.14595326       2.18933171       2.50525279        6       0.01912968      -0.01255599      -0.03313935
O        4.15289998       4.44962846       2.07885591        7      -0.01912968       0.01255599       0.03313935
O        6.30015473       4.32994146       4.35725565        8      -0.00000000      -0.02288225       0.03313935
O        5.22196806       1.54005305       3.42442691        9       0.01912968      -0.03543825      -0.00000000
10
Lattice="5.846752822566017 0.018525809507740004 0.012791811140937798 3.223728669992504 4.877748992729128 0.012791811140937926 3.2237286699925045 1.7401790047289498 4.556794476164446" Properties=species:S:1:pos:R:3:spacegroup_kinds:I:1:forces:R:3 spacegroup="P 1" unit_cell=conventional occupancy="_JSON {\"0\": {\"In\": 1}, \"1\": {\"In\": 1}, \"2\": {\"In\": 1}, \"3\": {\"In\": 1}, \"4\": {\"O\": 1}, \"5\": {\"O\": 1}, \"6\": {\"O\": 1}, \"7\": {\"O\": 1}, \"8\": {\"O\": 1}, \"9\": {\"O\": 1}}" n_minim_iter=4 energy=-11287.663829368932 stress="-0.012812124540129555 -0.00016926465350044663 -0.00011687486691690115 -0.00016926465350044663 -0.012589926792171167 -6.308942683635099e-05 -0.00011687486691690115 -6.308942683635099e-05 -0.012542119549678588" free_energy=-11287.663829368932 pbc="T T T"
In      10.53757803       5.68821819       3.92763473        0      -0.00061794      -0.00033357      -0.00023032
In       7.90373723       4.26646253       2.94593243        1       0.00061794       0.00033357       0.00023032
In       4.39047295       2.36999128       1.63644568        2      -0.00061794      -0.00033357      -0.00023032
In       1.75663215       0.94823563       0.65474338        3       0.00061794       0.00033357       0.00023032
O        5.99692896       2.30856316       0.22483645        4      -0.00000000       0.01175679      -0.01702683
O        7.07359394       5.09872213       1.15838634        5      -0.00982873       0.01820799      -0.00000000
O        8.14399264       2.18718139       2.50323369        6       0.00982873      -0.00645121      -0.01702683
O        4.15021753       4.44927243       2.07914441        7      -0.00982873       0.00645121       0.01702683
O        6.29728122       4.32789066       4.35754165        8      -0.00000000      -0.01175679       0.01702683
O        5.22061623       1.53773169       3.42399176        9       0.00982873      -0.01820799      -0.00000000
10
Lattice="5.847667605299976 0.01946465868501374 0.013440073305162862 3.225015513855721 4.877998588601937 0.013440073305162989 3.225015513855721 1.7408736471453474 4.556798197270506" Properties=species:S:1:pos:R:3:spacegroup_kinds:I:1:forces:R:3 spacegroup="P 1" unit_cell=conventional occupancy="_JSON {\"0\": {\"In\": 1}, \"1\": {\"In\": 1}, \"2\": {\"In\": 1}, \"3\": {\"In\": 1}, \"4\": {\"O\": 1}, \"5\": {\"O\": 1}, \"6\": {\"O\": 1}, \"7\": {\"O\": 1}, \"8\": {\"O\": 1}, \"9\": {\"O\": 1}}" n_minim_iter=5 energy=-11287.663915421543 stress="-0.012613790259680329 -0.00010244011442340055 -7.073345861224715e-05 -0.00010244011442340055 -0.01247931467734703 -3.818214632025237e-05 -7.073345861224715e-05 -3.818214632025237e-05 -0.012450381412816972" free_energy=-11287.663915421543 pbc="T T T"
In      10.54025493       5.68966319       3.92863248        0       0.00610755       0.00329687       0.00227644
In       7.90629303       4.26784217       2.94688504        1      -0.00610755      -0.00329687      -0.00227644
In       4.39140561       2.37049474       1.63679331        2       0.00610755       0.00329687       0.00227644
In       1.75744372       0.94867372       0.65504587        3      -0.00610755      -0.00329687      -0.00227644
O        5.99825847       2.31000096       0.22476498        4       0.00000000       0.00245832      -0.00356027
O        7.07515087       5.10055778       1.15935966        5      -0.00205516       0.00380725      -0.00000000
O        8.14638158       2.18819585       2.50316408        6       0.00205516      -0.00134893      -0.00356027
O        4.15131707       4.45014105       2.08051427        7      -0.00205516       0.00134893       0.00356027
O        6.29944018       4.32833594       4.35891337        8      -0.00000000      -0.00245832       0.00356027
O        5.22254777       1.53777912       3.42431869        9       0.00205516      -0.00380725       0.00000000
