10
Lattice="5.955581239335012 -0.019599537442283602 -0.013533205191744894 3.251572219593046 4.989650302471899 -0.013533205191741515 3.2515722195930468 1.7552090414944483 4.6707638036253565" Properties=species:S:1:pos:R:3:spacegroup_kinds:I:1:forces:R:3 spacegroup="P 1" unit_cell=conventional occupancy="_JSON {\"0\": {\"In\": 1}, \"1\": {\"In\": 1}, \"2\": {\"In\": 1}, \"3\": {\"In\": 1}, \"4\": {\"O\": 1}, \"5\": {\"O\": 1}, \"6\": {\"O\": 1}, \"7\": {\"O\": 1}, \"8\": {\"O\": 1}, \"9\": {\"O\": 1}}" n_minim_iter=6 energy=-11287.622624412816 stress="0.017994587422990132 1.3945822640332134e-05 9.629394403901349e-06 1.3945822640332134e-05 0.017976280409724484 5.197977720179377e-06 9.629394403901349e-06 5.197977720179377e-06 0.017972341541394578" free_energy=-11287.622624412816 pbc="T T T"
In      10.66478774       5.75688640       3.97504916        0      -0.00071920      -0.00038823      -0.00026807
In       8.02330079       4.33100333       2.99049694        1       0.00071920       0.00038823       0.00026807
In       4.43542490       2.39425649       1.65320046        2      -0.00071920      -0.00038823      -0.00026807
In       1.79393795       0.96837342       0.66864824        3       0.00071920       0.00038823       0.00026807
O        6.09247204       2.32329433       0.21021509        4       0.00000000       0.00286194      -0.00414482
O        7.17336754       5.17576493       1.14739115        5      -0.00239260       0.00443235      -0.00000000
O        8.26314876       2.19147426       2.54559699        6       0.00239260      -0.00157041      -0.00414482
O        4.19557692       4.53378556       2.09810040        7      -0.00239260       0.00157041       0.00414482
O        6.36625364       4.40196549       4.43348230        8      -0.00000000      -0.00286194       0.00414482
O        5.28535814       1.54949489       3.49630625        9       0.00239260      -0.00443235       0.00000000
