10
Lattice="6.083015841921314 -0.031603151334542647 -0.021821531909901274 3.3114632888872997 5.102772910740947 -0.021821531909896663 3.3114632888872997 1.787538431472813 4.779484691245935" Properties=species:S:1:pos:R:3:spacegroup_kinds:I:1:forces:R:3 spacegroup="P 1" unit_cell=conventional occupancy="_JSON {\"0\": {\"In\": 1}, \"1\": {\"In\": 1}, \"2\": {\"In\": 1}, \"3\": {\"In\": 1}, \"4\": {\"O\": 1}, \"5\": {\"O\": 1}, \"6\": {\"O\": 1}, \"7\": {\"O\": 1}, \"8\": {\"O\": 1}, \"9\": {\"O\": 1}}" n_minim_iter=1 energy=-11287.290157904345 stress="0.0519972113704262 -0.0008021649144786601 -0.0005538836015573426 -0.0008021649144786601 0.05305023239411427 -0.00029898813306709817 -0.0005538836015573426 -0.00029898813306709817 0.05327679646540007" free_energy=-11287.290157904345 pbc="T T T"
In      10.84860515       5.85611162       4.04356278        0      -0.12358204      -0.06670998      -0.04606230
In       8.21030849       4.43195068       3.06019966        1       0.12358204       0.06670998       0.04606230
In       4.49563394       2.42675752       1.67564197        2      -0.12358204      -0.06670998      -0.04606230
In       1.85733728       1.00259658       0.69227885        3       0.12358204       0.06670998       0.04606230
O        6.21799353       2.36286438       0.21142414        4       0.00000000       0.02378711      -0.03444981
O        7.31862715       5.27859604       1.16213888        5      -0.01988614       0.03683962       0.00000000
O        8.42882320       2.22829948       2.60116648        6       0.01988614      -0.01305251      -0.03444981
O        4.27711923       4.63040872       2.13467515        7      -0.01988614       0.01305251       0.03444981
O        6.48794890       4.49584383       4.52441749        8      -0.00000000      -0.02378711       0.03444981
O        5.38731528       1.58011216       3.57370275        9       0.01988614      -0.03683962      -0.00000000
10
Lattice="6.09304776966631 -0.021180746336635924 -0.01462500771419065 3.3256812093367003 5.105440651042352 -0.014625007714186037 3.325681209336701 1.7952133102202896 4.779429600169281" Properties=species:S:1:pos:R:3:spacegroup_kinds:I:1:forces:R:3 spacegroup="P 1" unit_cell=conventional occupancy="_JSON {\"0\": {\"In\": 1}, \"1\": {\"In\": 1}, \"2\": {\"In\": 1}, \"3\": {\"In\": 1}, \"4\": {\"O\": 1}, \"5\": {\"O\": 1}, \"6\": {\"O\": 1}, \"7\": {\"O\": 1}, \"8\": {\"O\": 1}, \"9\": {\"O\": 1}}" n_minim_iter=2 energy=-11287.29180272818 stress="0.051931613536209044 0.00035091814058440054 0.00024230404345043305 0.00035091814058440054 0.05147095491754411 0.0001307964966463252 0.00024230404345043305 0.0001307964966463252 0.051371841330267384" free_energy=-11287.29180272818 pbc="T T T"
In      10.87967895       5.87288535       4.05514481        0      -0.12562573      -0.06781317      -0.04682404
In       8.23693634       4.44632448       3.07012457        1       0.12562573       0.06781317       0.04682404
In       4.50747385       2.43314875       1.68005502        2      -0.12562573      -0.06781317      -0.04682404
In       1.86473125       1.00658787       0.69503478        3       0.12562573       0.06781317       0.04682404
O        6.23262644       2.37260329       0.21956788        4      -0.00000000       0.01982756      -0.02871536
O        7.34092374       5.28930472       1.17291989        5      -0.01657594       0.03070737      -0.00000000
O        8.45001034       2.24290348       2.60928268        6       0.01657594      -0.01087981      -0.02871536
O        4.29439986       4.63656975       2.14089691        7      -0.01657594       0.01087981       0.02871536
O        6.51178376       4.50686994       4.53061171        8       0.00000000      -0.01982756       0.02871536
O        5.40348646       1.59016850       3.57725970        9       0.01657594      -0.03070737      -0.00000000
10
Lattice="6.110111220672076 -0.0035192380743173574 -0.002429984438080547 3.349809406628888 5.110014525740607 -0.0024299844380759467 3.349809406628889 1.8082377879750866 4.779385991970448" Properties=species:S:1:pos:R:3:spacegroup_kinds:I:1:forces:R:3 spacegroup="P 1" unit_cell=conventional occupancy="_JSON {\"0\": {\"In\": 1}, \"1\": {\"In\": 1}, \"2\": {\"In\": 1}, \"3\": {\"In\": 1}, \"4\": {\"O\": 1}, \"5\": {\"O\": 1}, \"6\": {\"O\": 1}, \"7\": {\"O\": 1}, \"8\": {\"O\": 1}, \"9\": {\"O\": 1}}" n_minim_iter=3 energy=-11287.296634050967 stress="0.04834519183250985 0.0014470077987044291 0.0009991385529469383 0.0014470077987044291 0.046445670168412626 0.0005393381737318681 0.0009991385529469383 0.0005393381737318681 0.04603697617904121" free_energy=-11287.296634050967 pbc="T T T"
In      10.92192455       5.89568966       4.07089087        0      -0.04021912      -0.02171041      -0.01499073
In       8.29267051       4.47640996       3.09089817        1       0.04021912       0.02171041       0.01499073
In       4.51705953       2.43832313       1.68362785        2      -0.04021912      -0.02171041      -0.01499073
In       1.88780549       1.01904342       0.70363516        3       0.04021912       0.02171041       0.01499073
O        6.25748812       2.39086893       0.23085419        4      -0.00000000      -0.01262577       0.01828534
O        7.37733127       5.31019747       1.19120152        5       0.01055521      -0.01955381      -0.00000000
O        8.48745438       2.26672127       2.62054719        6      -0.01055521       0.00692804       0.01828534
O        4.32227566       4.64801181       2.15397884        7       0.01055521      -0.00692804      -0.01828534
O        6.55224192       4.52386416       4.54367184        8       0.00000000       0.01262577      -0.01828534
O        5.43239877       1.60453562       3.58332450        9      -0.01055521       0.01955381      -0.00000000
10
Lattice="6.102682959622621 -0.011197693327197224 -0.00773184989275531 3.3393141306416005 5.108017798608522 -0.007731849892750699 3.3393141306416014 1.8025724045661424 4.779397277764304" Properties=species:S:1:pos:R:3:spacegroup_kinds:I:1:forces:R:3 spacegroup="P 1" unit_cell=conventional occupancy="_JSON {\"0\": {\"In\": 1}, \"1\": {\"In\": 1}, \"2\": {\"In\": 1}, \"3\": {\"In\": 1}, \"4\": {\"O\": 1}, \"5\": {\"O\": 1}, \"6\": {\"O\": 1}, \"7\": {\"O\": 1}, \"8\": {\"O\": 1}, \"9\": {\"O\": 1}}" n_minim_iter=4 energy=-11287.297660716664 stress="0.04758192066225912 0.0004021429959093003 0.00027767408794030255 0.0004021429959093003 0.04705401795624798 0.0001498893571279131 0.00027767408794030255 0.0001498893571279131 0.046940436381867214" free_energy=-11287.297660716664 pbc="T T T"
In      10.89643563       5.88193066       4.06139047        0      -0.01761769      -0.00951009      -0.00656658
In       8.27553121       4.46715811       3.08450990        1       0.01761769       0.00951009       0.00656658
In       4.50578002       2.43223441       1.67942368        2      -0.01761769      -0.00951009      -0.00656658
In       1.88487560       1.01746186       0.70254311        3       0.01761769       0.00951009       0.00656658
O        6.24666929       2.38391904       0.22450591        4      -0.00000000      -0.01284526       0.01860322
O        7.36065912       5.30264676       1.18325155        5       0.01073871      -0.01989374      -0.00000000
O        8.47199359       2.25581667       2.61420455        6      -0.01073871       0.00704848       0.01860322
O        4.30931764       4.64357585       2.14972904        7       0.01073871      -0.00704848      -0.01860322
O        6.53464194       4.51547348       4.53942767        8       0.00000000       0.01284526      -0.01860322
O        5.42065211       1.59674576       3.58068204        9      -0.01073871       0.01989374       0.00000000
10
Lattice="6.099752701339909 -0.01423094434045606 -0.009826267094252 3.3351704209383684 5.107232499169984 -0.009826267094247405 3.3351704209383684 1.800335616869219 4.779404986265051" Properties=species:S:1:pos:R:3:spacegroup_kinds:I:1:forces:R:3 spacegroup="P 1" unit_cell=conventional occupancy="_JSON {\"0\": {\"In\": 1}, \"1\": {\"In\": 1}, \"2\": {\"In\": 1}, \"3\": {\"In\": 1}, \"4\": {\"O\": 1}, \"5\": {\"O\": 1}, \"6\": {\"O\": 1}, \"7\": {\"O\": 1}, \"8\": {\"O\": 1}, \"9\": {\"O\": 1}}" n_minim_iter=5 energy=-11287.297816810804 stress="0.04716416132921198 -5.428080130504897e-05 -3.748013068845882e-05 -5.428080130504897e-05 0.04723541703317252 -2.023189459534381e-05 -3.748013068845882e-05 -2.023189459534381e-05 0.04725074814387322" free_energy=-11287.297816810804 pbc="T T T"
In      10.88594051       5.87626537       4.05747866        0      -0.00481794      -0.00260074      -0.00179577
In       8.26919981       4.46374040       3.08215002        1       0.00481794       0.00260074       0.00179577
In       4.50089374       2.42959678       1.67760243        2      -0.00481794      -0.00260074      -0.00179577
In       1.88415304       1.01707182       0.70227380        3       0.00481794       0.00260074       0.00179577
O        6.24239974       2.38102261       0.22221931        4       0.00000000      -0.01141327       0.01652933
O        7.35420567       5.29943122       1.18011185        5       0.00954155      -0.01767598       0.00000000
O        8.46576423       2.25159427       2.61192181        6      -0.00954155       0.00626271       0.01652933
O        4.30432932       4.64174291       2.14783065        7       0.00954155      -0.00626271      -0.01652933
O        6.52769381       4.51231457       4.53753314        8      -0.00000000       0.01141327      -0.01652933
O        5.41588788       1.59390596       3.57964061        9      -0.00954155       0.01767598       0.00000000
10
Lattice="6.098880869079889 -0.015133891058473908 -0.010449739114861271 3.3339371595734244 5.10699910964381 -0.01044973911485669 3.333937159573423 1.799669898456067 4.779407636887795" Properties=species:S:1:pos:R:3:spacegroup_kinds:I:1:forces:R:3 spacegroup="P 1" unit_cell=conventional occupancy="_JSON {\"0\": {\"In\": 1}, \"1\": {\"In\": 1}, \"2\": {\"In\": 1}, \"3\": {\"In\": 1}, \"4\": {\"O\": 1}, \"5\": {\"O\": 1}, \"6\": {\"O\": 1}, \"7\": {\"O\": 1}, \"8\": {\"O\": 1}, \"9\": {\"O\": 1}}" n_minim_iter=6 energy=-11287.297903542238 stress="0.04695879398402215 -0.00024652289397097564 -0.0001702205939371918 -0.00024652289397097564 0.04728241046791605 -9.188561869933951e-05 -0.0001702205939371918 -9.188561869933951e-05 0.04735203858309823" free_energy=-11287.297903542238 pbc="T T T"
In      10.88215716       5.87422310       4.05606851        0       0.00372549       0.00201103       0.00138859
In       8.26797563       4.46307958       3.08169374        1      -0.00372549      -0.00201103      -0.00138859
In       4.49877957       2.42845554       1.67681443        2       0.00372549       0.00201103       0.00138859
In       1.88459804       1.01731203       0.70243966        3      -0.00372549      -0.00201103      -0.00138859
O        6.24112924       2.37948467       0.22251754        4       0.00000000      -0.00338327       0.00489983
O        7.35285020       5.29742762       1.17917730        5       0.00282843      -0.00523974       0.00000000
O        8.46334543       2.25070839       2.61222135        6      -0.00282843       0.00185647       0.00489983
O        4.30340977       4.64082674       2.14628681        7       0.00282843      -0.00185647      -0.00489983
O        6.52562596       4.51205046       4.53599063        8      -0.00000000       0.00338327      -0.00489983
O        5.41390500       1.59410751       3.57933086        9      -0.00282843       0.00523974       0.00000000
