10
Lattice="5.012527439262758 -0.3586682514822016 -0.24765538765221007 2.4506348623134606 4.387307034571123 -0.2476553876521883 2.450634862313462 1.3228605047783206 4.190445834458196" Properties=species:S:1:pos:R:3:spacegroup_kinds:I:1:forces:R:3 spacegroup="P 1" unit_cell=conventional occupancy="_JSON {\"0\": {\"In\": 1}, \"1\": {\"In\": 1}, \"2\": {\"In\": 1}, \"3\": {\"In\": 1}, \"4\": {\"O\": 1}, \"5\": {\"O\": 1}, \"6\": {\"O\": 1}, \"7\": {\"O\": 1}, \"8\": {\"O\": 1}, \"9\": {\"O\": 1}}" n_minim_iter=1 energy=-11282.713783147263 stress="-0.5546400597797688 0.028330556250690062 0.0195618509905381 0.028330556250690062 -0.5918302569371136 0.010559549476221177 0.0195618509905381 0.010559549476221177 -0.5998319609129906" free_energy=-11282.713783147263 pbc="T T T"
In       8.66326310       4.67645702       3.22902786        0      -0.11184501      -0.06037429      -0.04168760
In       6.20743263       3.35079191       2.31367473        1       0.11184501       0.06037429       0.04168760
In       3.70636452       2.00070738       1.38146033        2      -0.11184501      -0.06037429      -0.04168760
In       1.25053405       0.67504227       0.46610720        3       0.11184501       0.06037429       0.04168760
O        4.98471300       1.82113348      -0.15964751        4      -0.00000000      -0.08675596       0.12564479
O        5.65609956       4.37836614       0.67612838        5       0.07252841      -0.13436085       0.00000000
O        6.76396131       1.45639181       1.93557541        6      -0.07252841       0.04760489       0.12564479
O        3.14983584       3.89510748       1.75955965        7       0.07252841      -0.04760489      -0.12564479
O        4.92908415       3.53036581       3.85478256        8       0.00000000       0.08675596      -0.12564479
O        4.25769759       0.97313315       3.01900668        9      -0.07252841       0.13436085      -0.00000000
10
Lattice="4.938821326643889 -0.4460005249237006 -0.3079570952728979 2.337180492149529 4.373609483236982 -0.30795709527287574 2.3371804921495314 1.2616174743732593 4.199002123450924" Properties=species:S:1:pos:R:3:spacegroup_kinds:I:1:forces:R:3 spacegroup="P 1" unit_cell=conventional occupancy="_JSON {\"0\": {\"In\": 1}, \"1\": {\"In\": 1}, \"2\": {\"In\": 1}, \"3\": {\"In\": 1}, \"4\": {\"O\": 1}, \"5\": {\"O\": 1}, \"6\": {\"O\": 1}, \"7\": {\"O\": 1}, \"8\": {\"O\": 1}, \"9\": {\"O\": 1}}" n_minim_iter=2 energy=-11282.867966860606 stress="-0.4739882410933302 0.005581351259010184 0.0038538446157145374 0.005581351259010184 -0.48131501406518146 0.002080317601069516 0.0038538446157145374 0.002080317601069516 -0.48289141518666323" free_energy=-11282.867966860606 pbc="T T T"
In       8.39989777       4.53429157       3.13086461        0       0.57438374       0.31005417       0.21408805
In       6.01987569       3.24954808       2.24376728        1      -0.57438374      -0.31005417      -0.21408805
In       3.59330661       1.93967836       1.33932065        2       0.57438374       0.31005417       0.21408805
In       1.21328453       0.65493486       0.45222332        3      -0.57438374      -0.31005417      -0.21408805
O        4.87270624       1.74663489      -0.23191001        4      -0.00000000      -0.40654413       0.58877972
O        5.47922646       4.30236099       0.58781489        5       0.33987292      -0.62962377       0.00000000
O        6.60336650       1.33619372       1.86759105        6      -0.33987292       0.22307964       0.58877972
O        3.00981580       3.85303271       1.71549688        7       0.33987292      -0.22307964      -0.58877972
O        4.74047606       3.44259154       3.81499794        8       0.00000000       0.40654413      -0.58877972
O        4.13395583       0.88686544       2.99527304        9      -0.33987292       0.62962377       0.00000000
10
Lattice="4.888853588014663 -0.5069935400294868 -0.35007191513129826 2.2587716376632128 4.365304404456099 -0.350071915131276 2.258771637663215 1.219292124962804 4.206157344100567" Properties=species:S:1:pos:R:3:spacegroup_kinds:I:1:forces:R:3 spacegroup="P 1" unit_cell=conventional occupancy="_JSON {\"0\": {\"In\": 1}, \"1\": {\"In\": 1}, \"2\": {\"In\": 1}, \"3\": {\"In\": 1}, \"4\": {\"O\": 1}, \"5\": {\"O\": 1}, \"6\": {\"O\": 1}, \"7\": {\"O\": 1}, \"8\": {\"O\": 1}, \"9\": {\"O\": 1}}" n_minim_iter=3 energy=-11282.930145486578 stress="-0.4153224481929524 -0.01451366940226018 -0.010021484774806353 -0.01451366940226018 -0.3962700080667965 -0.0054096294046241675 -0.010021484774806353 -0.0054096294046241675 -0.39217075618401925" free_energy=-11282.930145486578 pbc="T T T"
In       8.22860898       4.44182934       3.06702074        0       0.62758094       0.33877019       0.23391606
In       5.88098630       3.17457514       2.19199952        1      -0.62758094      -0.33877019      -0.23391606
In       3.52541055       1.90302785       1.31401399        2       0.62758094       0.33877019       0.23391606
In       1.17778787       0.63577365       0.43899277        3      -0.62758094      -0.33877019      -0.23391606
O        4.79602600       1.68790057      -0.27175527        4      -0.00000000      -0.28210954       0.40856667
O        5.36361932       4.23929198       0.52643146        5       0.23584498      -0.43690921      -0.00000000
O        6.48720432       1.25681083       1.83132340        6      -0.23584498       0.15479967       0.40856667
O        2.91919253       3.82079216       1.67469011        7       0.23584498      -0.15479967      -0.40856667
O        4.61037085       3.38970242       3.77776878        8      -0.00000000       0.28210954      -0.40856667
O        4.04277753       0.83831101       2.97958205        9      -0.23584498       0.43690921      -0.00000000
10
Lattice="4.896916909983531 -0.4970464087173813 -0.3432035607371008 2.2715120099465893 4.366587173568164 -0.3432035607370785 2.2715120099465924 1.226169418503769 4.204923398303312" Properties=species:S:1:pos:R:3:spacegroup_kinds:I:1:forces:R:3 spacegroup="P 1" unit_cell=conventional occupancy="_JSON {\"0\": {\"In\": 1}, \"1\": {\"In\": 1}, \"2\": {\"In\": 1}, \"3\": {\"In\": 1}, \"4\": {\"O\": 1}, \"5\": {\"O\": 1}, \"6\": {\"O\": 1}, \"7\": {\"O\": 1}, \"8\": {\"O\": 1}, \"9\": {\"O\": 1}}" n_minim_iter=4 energy=-11282.96852116535 stress="-0.4080167088751279 -0.00047199560752269275 -0.0003259063351390393 -0.00047199560752269275 -0.4073971089796433 -0.00017592527834334233 -0.0003259063351390393 -0.00017592527834334233 -0.4072637981813683" free_energy=-11282.96852116535 pbc="T T T"
In       8.26568887       4.46184519       3.08084140        0       0.20312397       0.10964696       0.07570969
In       5.89422251       3.18172009       2.19693301        1      -0.20312397      -0.10964696      -0.07570969
In       3.54571841       1.91399009       1.32158326        2       0.20312397       0.10964696       0.07570969
In       1.17425204       0.63386500       0.43767487        3      -0.20312397      -0.10964696      -0.07570969
O        4.80844368       1.69109416      -0.25606158        4      -0.00000000       0.00441780      -0.00639811
O        5.38767968       4.23966629       0.53642551        5      -0.00369331       0.00684195      -0.00000000
O        6.50071969       1.27321051       1.84640012        6       0.00369331      -0.00242415      -0.00639811
O        2.93922123       3.82249968       1.67211616        7      -0.00369331       0.00242415       0.00639811
O        4.63149724       3.40461602       3.77457786        8       0.00000000      -0.00441780       0.00639811
O        4.05226124       0.85604389       2.98209077        9       0.00369331      -0.00684195       0.00000000
10
Lattice="4.893689731061436 -0.5010225742682026 -0.3459490471769755 2.266417092147672 4.3660710448002895 -0.34594904717695335 2.2664170921476754 1.2234191656468756 4.2054134941303865" Properties=species:S:1:pos:R:3:spacegroup_kinds:I:1:forces:R:3 spacegroup="P 1" unit_cell=conventional occupancy="_JSON {\"0\": {\"In\": 1}, \"1\": {\"In\": 1}, \"2\": {\"In\": 1}, \"3\": {\"In\": 1}, \"4\": {\"O\": 1}, \"5\": {\"O\": 1}, \"6\": {\"O\": 1}, \"7\": {\"O\": 1}, \"8\": {\"O\": 1}, \"9\": {\"O\": 1}}" n_minim_iter=5 energy=-11282.971751331695 stress="-0.4020456149434272 -0.0002703009828301967 -0.00018663902983794738 -0.0002703009828301967 -0.40169078439531347 -0.0001007483425177672 -0.00018663902983794738 -0.0001007483425177672 -0.4016144403801423" free_energy=-11282.971751331695 pbc="T T T"
In       8.25809623       4.45774665       3.07801142        0       0.11295775       0.06097495       0.04210235
In       5.88168964       3.17495480       2.19226168        1      -0.11295775      -0.06097495      -0.04210235
In       3.54483427       1.91351283       1.32125372        2       0.11295775       0.06097495       0.04210235
In       1.16842768       0.63072099       0.43550398        3      -0.11295775      -0.06097495      -0.04210235
O        4.80347584       1.68697553      -0.25822124        4       0.00000000       0.05012098      -0.07258797
O        5.38043182       4.23511406       0.53242980        5      -0.04190139       0.07762345       0.00000000
O        6.49293695       1.26821220       1.84448551        6       0.04190139      -0.02750247      -0.07258797
O        2.93358696       3.82025544       1.66902989        7      -0.04190139       0.02750247       0.07258797
O        4.62304807       3.40149210       3.77173663        8      -0.00000000      -0.05012098       0.07258797
O        4.04609208       0.85335358       2.98108560        9       0.04190139      -0.07762345       0.00000000
10
Lattice="4.892509263866 -0.5024786655813144 -0.34695445776772454 2.264552044412035 4.365883157452611 -0.34695445776770245 2.26455204441204 1.2224124069383708 4.205594018406472" Properties=species:S:1:pos:R:3:spacegroup_kinds:I:1:forces:R:3 spacegroup="P 1" unit_cell=conventional occupancy="_JSON {\"0\": {\"In\": 1}, \"1\": {\"In\": 1}, \"2\": {\"In\": 1}, \"3\": {\"In\": 1}, \"4\": {\"O\": 1}, \"5\": {\"O\": 1}, \"6\": {\"O\": 1}, \"7\": {\"O\": 1}, \"8\": {\"O\": 1}, \"9\": {\"O\": 1}}" n_minim_iter=6 energy=-11282.974474497774 stress="-0.3990038370410347 0.0003158876009855774 0.00021811595010168974 0.0003158876009855774 -0.39941851023425623 0.00011773968370601926 0.00021811595010168974 0.00011773968370601926 -0.3995077297706142" free_energy=-11282.974474497774 pbc="T T T"
In       8.25863564       4.45803783       3.07821247        0       0.02927238       0.01580133       0.01091059
In       5.87378438       3.17068752       2.18931518        1      -0.02927238      -0.01580133      -0.01091059
In       3.54782897       1.91512938       1.32236992        2       0.02927238       0.01580133       0.01091059
In       1.16297770       0.62777907       0.43347262        3      -0.02927238      -0.01580133      -0.01091059
O        4.80165796       1.68650488      -0.26051403        4      -0.00000000       0.05852318      -0.08475651
O        5.37691223       4.23505433       0.53096682        5      -0.04892567       0.09063613       0.00000000
O        6.49095574       1.26581322       1.84228298        6       0.04892567      -0.03211295      -0.08475651
O        2.93065760       3.82000368       1.66940212        7      -0.04892567       0.03211295       0.08475651
O        4.61995538       3.39931202       3.77219913        8       0.00000000      -0.05852318       0.08475651
O        4.04470111       0.85076257       2.98071828        9       0.04892567      -0.09063613      -0.00000000
10
Lattice="4.8922788545754 -0.5027629760877779 -0.347150770177314 2.2641879287999465 4.365846541522841 -0.34715077017729196 2.26418792879995 1.2222158561711338 4.205629332488232" Properties=species:S:1:pos:R:3:spacegroup_kinds:I:1:forces:R:3 spacegroup="P 1" unit_cell=conventional occupancy="_JSON {\"0\": {\"In\": 1}, \"1\": {\"In\": 1}, \"2\": {\"In\": 1}, \"3\": {\"In\": 1}, \"4\": {\"O\": 1}, \"5\": {\"O\": 1}, \"6\": {\"O\": 1}, \"7\": {\"O\": 1}, \"8\": {\"O\": 1}, \"9\": {\"O\": 1}}" n_minim_iter=7 energy=-11282.976147976831 stress="-0.3980618303679415 0.0004659752352776017 0.00032174935323344003 0.0004659752352776017 -0.3986735271771541 0.00017368132653393674 0.00032174935323344003 0.00017368132653393674 -0.3988051375771547" free_energy=-11282.976147976831 pbc="T T T"
In       8.26189887       4.45979933       3.07942877        0      -0.01361136      -0.00734746      -0.00507331
In       5.86908319       3.16814980       2.18756292        1       0.01361136       0.00734746       0.00507331
In       3.55157151       1.91714962       1.32376487        2      -0.01361136      -0.00734746      -0.00507331
In       1.15875583       0.62550009       0.43189902        3       0.01361136       0.00734746       0.00507331
O        4.80130310       1.68808455      -0.26338251        4       0.00000000       0.02894523      -0.04192009
O        5.37482771       4.23763148       0.53068118        5      -0.02419836       0.04482811       0.00000000
O        6.49196642       1.26442763       1.83943216        6       0.02419836      -0.01588288      -0.04192009
O        2.92868828       3.82087179       1.67189563        7      -0.02419836       0.01588288       0.04192009
O        4.61935160       3.39721488       3.77471030        8      -0.00000000      -0.02894523       0.04192009
O        4.04582699       0.84766794       2.98064661        9       0.02419836      -0.04482811       0.00000000
10
Lattice="4.892265171756664 -0.5027798608865814 -0.34716242889362303 2.2641663049624134 4.365844367676125 -0.3471624288936011 2.2641663049624174 1.2222041835547541 4.205631430416344" Properties=species:S:1:pos:R:3:spacegroup_kinds:I:1:forces:R:3 spacegroup="P 1" unit_cell=conventional occupancy="_JSON {\"0\": {\"In\": 1}, \"1\": {\"In\": 1}, \"2\": {\"In\": 1}, \"3\": {\"In\": 1}, \"4\": {\"O\": 1}, \"5\": {\"O\": 1}, \"6\": {\"O\": 1}, \"7\": {\"O\": 1}, \"8\": {\"O\": 1}, \"9\": {\"O\": 1}}" n_minim_iter=8 energy=-11282.976378352705 stress="-0.3985611923505701 6.868256797575236e-05 4.742435041215246e-05 6.868256797575236e-05 -0.3986513535982225 2.559981437899268e-05 4.742435041215246e-05 2.559981437899268e-05 -0.3986707523576782" free_energy=-11282.976378352705 pbc="T T T"
In       8.26262518       4.46019139       3.07969948        0      -0.00797449      -0.00430466      -0.00297230
In       5.86827148       3.16771164       2.18726037        1       0.00797449       0.00430466       0.00297230
In       3.55232629       1.91755705       1.32404619        2      -0.00797449      -0.00430466      -0.00297230
In       1.15797259       0.62507730       0.43160709        3       0.00797449       0.00430466       0.00297230
O        4.80128203       1.68894431      -0.26466215        4      -0.00000000       0.00526094      -0.00761918
O        5.37406357       4.23897078       0.53066421        5      -0.00439817       0.00814773       0.00000000
O        6.49266678       1.26392505       1.83815356        6       0.00439817      -0.00288679      -0.00761918
O        2.92793099       3.82134364       1.67315301        7      -0.00439817       0.00288679       0.00761918
O        4.61931574       3.39632438       3.77596872        8       0.00000000      -0.00526094       0.00761918
O        4.04653420       0.84629791       2.98064236        9       0.00439817      -0.00814773       0.00000000
