10
Lattice="6.237446562604635 0.03559884782596318 0.024580504189815718 3.4523840053318735 5.195002558136386 0.024580504189820697 3.4523840053318753 1.863607883089777 4.849290818080042" Properties=species:S:1:pos:R:3:spacegroup_kinds:I:1:forces:R:3 spacegroup="P 1" unit_cell=conventional occupancy="_JSON {\"0\": {\"In\": 1}, \"1\": {\"In\": 1}, \"2\": {\"In\": 1}, \"3\": {\"In\": 1}, \"4\": {\"O\": 1}, \"5\": {\"O\": 1}, \"6\": {\"O\": 1}, \"7\": {\"O\": 1}, \"8\": {\"O\": 1}, \"9\": {\"O\": 1}}" n_minim_iter=5 energy=-11286.92828018635 stress="0.06576623438681965 6.001130836674774e-05 4.143696567018253e-05 6.001130836674774e-05 0.06568745610863981 2.236780514099844e-05 4.143696567018253e-05 2.236780514099844e-05 0.06567050647117906" free_energy=-11286.92828018635 pbc="T T T"
In      11.16912518       6.02912935       4.16302910        0      -0.00456442      -0.00246389      -0.00170128
In       8.54419669       4.61218459       3.18464865        1       0.00456442       0.00246389       0.00170128
In       4.59801789       2.48202471       1.71380318        2      -0.00456441      -0.00246389      -0.00170128
In       1.97308940       1.06507995       0.73542274        3       0.00456442       0.00246389       0.00170128
O        6.40427693       2.46678434       0.25870432        4       0.00000000      -0.00078108       0.00113120
O        7.56580392       5.43491024       1.24919346        5       0.00065298      -0.00120967       0.00000000
O        8.69513395       2.35253108       2.68334972        6      -0.00065298       0.00042859       0.00113120
O        4.44708064       4.74167823       2.21510211        7       0.00065298      -0.00042859      -0.00113120
O        6.73793765       4.62742496       4.63974752        8      -0.00000000       0.00078108      -0.00113120
O        5.57641067       1.65929906       3.64925837        9      -0.00065298       0.00120967      -0.00000000
