10
Lattice="5.8821522029288795 0.004128172220521066 0.002850444909310748 3.2311165867735987 4.915243349306673 0.0028504449093111374 3.2311165867735983 1.7441670257403987 4.595378841212067" Properties=species:S:1:pos:R:3:spacegroup_kinds:I:1:forces:R:3 spacegroup="P 1" unit_cell=conventional occupancy="_JSON {\"0\": {\"In\": 1}, \"1\": {\"In\": 1}, \"2\": {\"In\": 1}, \"3\": {\"In\": 1}, \"4\": {\"O\": 1}, \"5\": {\"O\": 1}, \"6\": {\"O\": 1}, \"7\": {\"O\": 1}, \"8\": {\"O\": 1}, \"9\": {\"O\": 1}}" n_minim_iter=1 energy=-11287.683613114048 stress="-7.736666352163804e-06 6.456568407754365e-05 4.458169814228964e-05 6.456568407754365e-05 -9.249358020216311e-05 2.406534152437702e-05 4.458169814228964e-05 2.406534152437702e-05 -0.00011072956051595688" free_energy=-11287.683613114048 pbc="T T T"
In      10.58118482       5.71175727       3.94388813        0      -0.00335321      -0.00181007      -0.00124983
In       7.93539326       4.28355056       2.95773147        1       0.00335321       0.00181007       0.00124983
In       4.40899213       2.37998800       1.64334827        2      -0.00335321      -0.00181007      -0.00124983
In       1.76320057       0.95178129       0.65719160        3       0.00335321       0.00181007       0.00124983
O        6.02717245       2.31343613       0.21686454        4      -0.00000000       0.00347368      -0.00503078
O        7.10310006       5.12525085       1.15312038        5      -0.00290402       0.00537977      -0.00000000
O        8.18236143       2.18583920       2.51455396        6       0.00290402      -0.00190609      -0.00503078
O        4.16202396       4.47769936       2.08652577        7      -0.00290402       0.00190609       0.00503078
O        6.31721294       4.35010243       4.38421519        8      -0.00000000      -0.00347368       0.00503078
O        5.24128533       1.53828771       3.44795936        9       0.00290402      -0.00537977       0.00000000
