10
Lattice="6.423456584651696 0.09321389419035503 0.06436288409940247 3.6026182339765542 5.3188932293471485 0.06436288409940658 3.6026182339765556 1.944704798259052 4.951049486086034" Properties=species:S:1:pos:R:3:spacegroup_kinds:I:1:forces:R:3 spacegroup="P 1" unit_cell=conventional occupancy="_JSON {\"0\": {\"In\": 1}, \"1\": {\"In\": 1}, \"2\": {\"In\": 1}, \"3\": {\"In\": 1}, \"4\": {\"O\": 1}, \"5\": {\"O\": 1}, \"6\": {\"O\": 1}, \"7\": {\"O\": 1}, \"8\": {\"O\": 1}, \"9\": {\"O\": 1}}" n_minim_iter=5 energy=-11286.054888673216 stress="0.11442840989263682 -1.2974382990970021e-05 -8.958628504609833e-06 -1.2974382990970021e-05 0.11444544167457679 -4.835896863134284e-06 -8.958628504609833e-06 -4.835896863134284e-06 0.11444910617193134" free_energy=-11286.054888673216 pbc="T T T"
In      11.54535145       6.23221749       4.30325860        0      -0.00019074      -0.00010296      -0.00007109
In       8.89768814       4.80300041       3.31640429        1       0.00019074       0.00010296       0.00007109
In       4.73100492       2.55381153       1.76337097        2      -0.00019074      -0.00010296      -0.00007109
In       2.08334162       1.12459444       0.77651666        3       0.00019074       0.00010296       0.00007109
O        6.61890156       2.58582355       0.28832676        4      -0.00000000      -0.00164431       0.00238138
O        7.83499580       5.62938293       1.33430670        5       0.00137465      -0.00254658       0.00000000
O        9.00542555       2.47404957       2.76385150        6      -0.00137465       0.00090227       0.00238138
O        4.62326751       4.88276237       2.31592376        7       0.00137465      -0.00090227      -0.00238138
O        7.00979150       4.77098838       4.79144850        8      -0.00000000       0.00164431      -0.00238138
O        5.79369726       1.72742900       3.74546856        9      -0.00137465       0.00254658       0.00000000
