10
Lattice="5.5872718398355286 -0.03627188977382238 -0.025045230197245808 3.035534636394404 4.690890292200059 -0.025045230197234262 3.0355346363944067 1.6385912659309907 4.395463304388634" Properties=species:S:1:pos:R:3:spacegroup_kinds:I:1:forces:R:3 spacegroup="P 1" unit_cell=conventional occupancy="_JSON {\"0\": {\"In\": 1}, \"1\": {\"In\": 1}, \"2\": {\"In\": 1}, \"3\": {\"In\": 1}, \"4\": {\"O\": 1}, \"5\": {\"O\": 1}, \"6\": {\"O\": 1}, \"7\": {\"O\": 1}, \"8\": {\"O\": 1}, \"9\": {\"O\": 1}}" n_minim_iter=1 energy=-11286.923336026173 stress="-0.11318327755402517 0.003990565150767107 0.002755429160654879 0.003990565150767107 -0.11842178764338675 0.0014873894375964421 0.002755429160654879 0.0014873894375964421 -0.11954888591664521" free_energy=-11286.923336026173 pbc="T T T"
In      10.02169445       5.40974259       3.73535124        0       0.08890089       0.04798898       0.03313572
In       7.46581722       4.03007192       2.78270803        1      -0.08890089      -0.04798898      -0.03313572
In       4.19252390       2.26313776       1.56266482        2       0.08890089       0.04798898       0.03313572
In       1.63664667       0.88346709       0.61002161        3      -0.08890089      -0.04798898      -0.03313572
O        5.70822120       2.19185909       0.15172709        4      -0.00000000       0.00959945      -0.01390245
O        6.69371033       4.88667138       1.06129798        5      -0.00802519       0.01486688       0.00000000
O        7.75826672       2.02509497       2.34945874        6       0.00802519      -0.00526743      -0.01390245
O        3.90007441       4.26811471       1.99591410        7      -0.00802519       0.00526743       0.01390245
O        5.95011992       4.10135059       4.19364576        8       0.00000000      -0.00959945       0.01390245
O        4.96463080       1.40653830       3.28407487        9       0.00802519      -0.01486688       0.00000000
10
Lattice="5.552060338979348 -0.07318223703505869 -0.05053130631796056 2.985356082320454 4.681706815813785 -0.05053130631794894 2.9853560823204566 1.6115047226061932 4.395905441564158" Properties=species:S:1:pos:R:3:spacegroup_kinds:I:1:forces:R:3 spacegroup="P 1" unit_cell=conventional occupancy="_JSON {\"0\": {\"In\": 1}, \"1\": {\"In\": 1}, \"2\": {\"In\": 1}, \"3\": {\"In\": 1}, \"4\": {\"O\": 1}, \"5\": {\"O\": 1}, \"6\": {\"O\": 1}, \"7\": {\"O\": 1}, \"8\": {\"O\": 1}, \"9\": {\"O\": 1}}" n_minim_iter=2 energy=-11286.92810519704 stress="-0.11466057024113388 -0.0020839251132085293 -0.0014389210074902022 -0.0020839251132085293 -0.1119249520239962 -0.0007767341436536172 -0.0014389210074902022 -0.0007767341436536172 -0.11133636662190036" free_energy=-11286.92810519704 pbc="T T T"
In       9.90641278       5.34751318       3.69238270        0       0.26561606       0.14338039       0.09900215
In       7.37774599       3.98253079       2.74988154        1      -0.26561606      -0.14338039      -0.09900215
In       4.14502652       2.23749852       1.54496129        2       0.26561606       0.14338039       0.09900215
In       1.61635974       0.87251614       0.60246013        3      -0.26561606      -0.14338039      -0.09900215
O        5.65672330       2.15898124       0.12074330        4       0.00000000      -0.00261144       0.00378203
O        6.61388578       4.85132667       1.02317940        5       0.00218318      -0.00404440       0.00000000
O        7.68491690       1.97267655       2.31869602        6      -0.00218318       0.00143296       0.00378203
O        3.83785561       4.24735276       1.97614681        7       0.00218318      -0.00143296      -0.00378204
O        5.86604921       4.06104807       4.17409954        8      -0.00000000       0.00261144      -0.00378203
O        4.90888673       1.36870264       3.27166343        9      -0.00218318       0.00404440       0.00000000
10
Lattice="5.562478777070724 -0.06221902355934021 -0.04296136146774657 3.000238208024246 4.684400927265557 -0.04296136146773504 3.000238208024249 1.6195381414657068 4.395742705650929" Properties=species:S:1:pos:R:3:spacegroup_kinds:I:1:forces:R:3 spacegroup="P 1" unit_cell=conventional occupancy="_JSON {\"0\": {\"In\": 1}, \"1\": {\"In\": 1}, \"2\": {\"In\": 1}, \"3\": {\"In\": 1}, \"4\": {\"O\": 1}, \"5\": {\"O\": 1}, \"6\": {\"O\": 1}, \"7\": {\"O\": 1}, \"8\": {\"O\": 1}, \"9\": {\"O\": 1}}" n_minim_iter=3 energy=-11286.934772071925 stress="-0.10997410452542636 0.0023321099476038424 0.0016102891491769891 0.0023321099476038424 -0.11303552090020311 0.0008692392123958634 0.0016102891491769891 0.0008692392123958634 -0.11369420381567426" free_energy=-11286.934772071925 pbc="T T T"
In       9.94870517       5.37034275       3.70814620        0       0.04502908       0.02430684       0.01678353
In       7.39572763       3.99223733       2.75658378        1      -0.04502908      -0.02430684      -0.01678353
In       4.16722758       2.24948272       1.55323621        2       0.04502908       0.02430684       0.01678353
In       1.61425003       0.87137731       0.60167379        3      -0.04502908      -0.02430684      -0.01678353
O        5.67197819       2.16879406       0.12985329        4      -0.00000000       0.05506491      -0.07974805
O        6.63749421       4.86188764       1.03449364        5      -0.04603454       0.08528022       0.00000000
O        7.70670038       1.98819646       2.32772464        6       0.04603454      -0.03021532      -0.07974805
O        3.85625482       4.25352359       1.98209535        7      -0.04603454       0.03021532       0.07974805
O        5.89097701       4.07292599       4.17996670        8       0.00000000      -0.05506491       0.07974805
O        4.92546099       1.37983242       3.27532635        9       0.04603454      -0.08528023      -0.00000000
10
Lattice="5.506756200069488 -0.12128123340618145 -0.08374298742646709 2.9202857108266733 4.670225299888852 -0.08374298742645546 2.9202857108266764 1.576379528802692 4.39693584452136" Properties=species:S:1:pos:R:3:spacegroup_kinds:I:1:forces:R:3 spacegroup="P 1" unit_cell=conventional occupancy="_JSON {\"0\": {\"In\": 1}, \"1\": {\"In\": 1}, \"2\": {\"In\": 1}, \"3\": {\"In\": 1}, \"4\": {\"O\": 1}, \"5\": {\"O\": 1}, \"6\": {\"O\": 1}, \"7\": {\"O\": 1}, \"8\": {\"O\": 1}, \"9\": {\"O\": 1}}" n_minim_iter=4 energy=-11286.94432738443 stress="-0.10164932980226392 -0.0019745855563816908 -0.001363423579995793 -0.0019745855563816908 -0.09905724422903181 -0.0007359803924209391 -0.001363423579995793 -0.0007359803924209391 -0.09849954077418523" free_energy=-11286.94432738443 pbc="T T T"
In       9.78432187       5.28160812       3.64687619        0       0.03073166       0.01658905       0.01145450
In       7.23666957       3.90637729       2.69729862        1      -0.03073166      -0.01658905      -0.01145450
In       4.11065806       2.21894632       1.53215125        2       0.03073166       0.01658905       0.01145450
In       1.56300576       0.84371549       0.58257369        3      -0.03073166      -0.01658905      -0.01145450
O        5.59021001       2.11951222       0.07583111        4       0.00000000       0.07975697      -0.11550847
O        6.50793449       4.81064764       0.97361948        5      -0.06667723       0.12352137      -0.00000000
O        7.59277124       1.90285728       2.27429903        6       0.06667723      -0.04376439      -0.11550847
O        3.75455639       4.22246632       1.95515084        7      -0.06667723       0.04376439       0.11550847
O        5.75711762       4.00581139       4.15361876        8      -0.00000000      -0.07975697       0.11550847
O        4.83939314       1.31467597       3.25583039        9       0.06667723      -0.12352137       0.00000000
10
Lattice="5.519684603745122 -0.10748334078377221 -0.07421573645829518 2.93891491537797 4.673462304709007 -0.0742157364582836 2.9389149153779726 1.5864356327598046 4.3965872983695" Properties=species:S:1:pos:R:3:spacegroup_kinds:I:1:forces:R:3 spacegroup="P 1" unit_cell=conventional occupancy="_JSON {\"0\": {\"In\": 1}, \"1\": {\"In\": 1}, \"2\": {\"In\": 1}, \"3\": {\"In\": 1}, \"4\": {\"O\": 1}, \"5\": {\"O\": 1}, \"6\": {\"O\": 1}, \"7\": {\"O\": 1}, \"8\": {\"O\": 1}, \"9\": {\"O\": 1}}" n_minim_iter=5 energy=-11286.948636685836 stress="-0.09921780989294614 0.001427789221202636 0.0009858683932786705 0.001427789221202636 -0.10109210287139694 0.0005321748995579955 0.0009858683932786705 0.0005321748995579955 -0.10149536875232404" free_energy=-11286.948636685836 pbc="T T T"
In       9.83174516       5.30720736       3.66455210        0      -0.06603728      -0.03564714      -0.02461385
In       7.26452650       3.92141455       2.70768164        1       0.06603728       0.03564714       0.02461385
In       4.13298794       2.23100006       1.54047419        2      -0.06603728      -0.03564714      -0.02461385
In       1.56576928       0.84520725       0.58360373        3       0.06603728       0.03564714       0.02461385
O        5.60922091       2.13527169       0.08224759        4       0.00000000       0.05354063      -0.07754050
O        6.53451461       4.82917122       0.98782322        5      -0.04476023       0.08291954       0.00000000
O        7.62284214       1.92041142       2.28054124        6       0.04476023      -0.02937891      -0.07754050
O        3.77467231       4.23200318       1.96761459        7      -0.04476023       0.02937891       0.07754050
O        5.78829353       4.01714291       4.16590824        8      -0.00000000      -0.05354063       0.07754050
O        4.86299983       1.32324338       3.26033261        9       0.04476023      -0.08291954      -0.00000000
10
Lattice="5.51402952391291 -0.11351156408777095 -0.07837813994128093 2.9307722247978187 4.672042447593846 -0.0783781399412692 2.9307722247978196 1.5820401824474135 4.3967343137902954" Properties=species:S:1:pos:R:3:spacegroup_kinds:I:1:forces:R:3 spacegroup="P 1" unit_cell=conventional occupancy="_JSON {\"0\": {\"In\": 1}, \"1\": {\"In\": 1}, \"2\": {\"In\": 1}, \"3\": {\"In\": 1}, \"4\": {\"O\": 1}, \"5\": {\"O\": 1}, \"6\": {\"O\": 1}, \"7\": {\"O\": 1}, \"8\": {\"O\": 1}, \"9\": {\"O\": 1}}" n_minim_iter=6 energy=-11286.950123336384 stress="-0.09856547420492126 0.000604317907758905 0.0004172730222211553 0.000604317907758905 -0.09935877673621005 0.0002252453062509373 0.0004172730222211553 0.0002252453062509373 -0.09952946074772874" free_energy=-11286.950123336384 pbc="T T T"
In       9.81469976       5.29800620       3.65819883        0      -0.02533640      -0.01367667      -0.00944355
In       7.24866120       3.91285041       2.70176822        1       0.02533640       0.01367667       0.00944355
In       4.12691278       2.22772067       1.53820981        2      -0.02533640      -0.01367667      -0.00944355
In       1.56087422       0.84256488       0.58177921        3       0.02533640       0.01367667       0.00944355
O        5.60090826       2.13190216       0.07434857        4      -0.00000000       0.02131517      -0.03086982
O        6.51995243       4.82652143       0.98161637        5      -0.01781959       0.03301127      -0.00000000
O        7.61263631       1.91080903       2.27271573        6       0.01781959      -0.01169610      -0.03086982
O        3.76293767       4.22976205       1.96726231        7      -0.01781959       0.01169610       0.03086982
O        5.77466572       4.00866892       4.16562947        8      -0.00000000      -0.02131517       0.03086981
O        4.85562155       1.31404964       3.25836167        9       0.01781959      -0.03301127       0.00000000
10
Lattice="5.509018964999944 -0.11886206357946758 -0.0820725846552279 2.9235497774120796 4.670789531319236 -0.08207258465521618 2.9235497774120804 1.5781414823426525 4.396871639784657" Properties=species:S:1:pos:R:3:spacegroup_kinds:I:1:forces:R:3 spacegroup="P 1" unit_cell=conventional occupancy="_JSON {\"0\": {\"In\": 1}, \"1\": {\"In\": 1}, \"2\": {\"In\": 1}, \"3\": {\"In\": 1}, \"4\": {\"O\": 1}, \"5\": {\"O\": 1}, \"6\": {\"O\": 1}, \"7\": {\"O\": 1}, \"8\": {\"O\": 1}, \"9\": {\"O\": 1}}" n_minim_iter=7 energy=-11286.950433548714 stress="-0.0978999236372477 -1.5166970656320103e-06 -1.0472590601062311e-06 -1.5166970656320103e-06 -0.09789793263167551 -5.653134698080514e-07 -1.0472590601062311e-06 -5.653134698080514e-07 -0.09789750425297725" free_energy=-11286.950433548714 pbc="T T T"
In       9.79977661       5.28995063       3.65263658        0       0.00096995       0.00052358       0.00036153
In       7.23440118       3.90515280       2.69645313        1      -0.00096995      -0.00052358      -0.00036153
In       4.12171735       2.22491616       1.53627334        2       0.00096995       0.00052358       0.00036153
In       1.55634192       0.84011833       0.58008990        3      -0.00096995      -0.00052358      -0.00036153
O        5.59353912       2.12861944       0.06776579        4       0.00000000      -0.00056267       0.00081489
O        6.50728496       4.82371961       0.97610904        5       0.00047039      -0.00087142       0.00000000
O        7.60334305       1.90245155       2.26620161        6      -0.00047039       0.00030875       0.00081489
O        3.75277547       4.22761741       1.96652486        7       0.00047039      -0.00030875      -0.00081489
O        5.76257941       4.00144952       4.16496068        8       0.00000000       0.00056267      -0.00081489
O        4.84883357       1.30634935       3.25661744        9      -0.00047039       0.00087142       0.00000000
