10
Lattice="5.4560443476446485 -0.11771908832813475 -0.08128337630523716 2.8954369806035194 4.6258753116113605 -0.0812833763052189 2.89543698060352 1.5629661050766024 4.354591409101518" Properties=species:S:1:pos:R:3:spacegroup_kinds:I:1:forces:R:3 spacegroup="P 1" unit_cell=conventional occupancy="_JSON {\"0\": {\"In\": 1}, \"1\": {\"In\": 1}, \"2\": {\"In\": 1}, \"3\": {\"In\": 1}, \"4\": {\"O\": 1}, \"5\": {\"O\": 1}, \"6\": {\"O\": 1}, \"7\": {\"O\": 1}, \"8\": {\"O\": 1}, \"9\": {\"O\": 1}}" n_minim_iter=1 energy=-11286.545473953443 stress="-0.14342332700180416 0.006090866983196739 0.004205658063947851 0.006090866983196739 -0.15141895342125197 0.0022702276179925604 0.004205658063947851 0.0022702276179925604 -0.1531392625515825" free_energy=-11286.545473953443 pbc="T T T"
In       9.70554215       5.23908257       3.61751290        0       0.13005503       0.07020412       0.04847496
In       7.16483532       3.86760093       2.67052409        1      -0.13005503      -0.07020412      -0.04847496
In       4.08208300       2.20352141       1.52150057        2       0.13005503       0.07020412       0.04847496
In       1.54137616       0.83203977       0.57451176        3      -0.13005503      -0.07020412      -0.04847496
O        5.53975176       2.10815068       0.06711416        4      -0.00000000       0.00544002      -0.00787853
O        6.44471103       4.77733482       0.96672279        5      -0.00454788       0.00842507       0.00000000
O        7.53022946       1.88415761       2.24440986        6       0.00454788      -0.00298506      -0.00787853
O        3.71668886       4.18696473       1.94761480        7      -0.00454788       0.00298506       0.00787853
O        5.70716656       3.96297166       4.12491050        8       0.00000000      -0.00544002       0.00787853
O        4.80220728       1.29378752       3.22530187        9       0.00454788      -0.00842507       0.00000000
10
Lattice="5.429090349347178 -0.14665588260458298 -0.1012638261340996 2.856455428623557 4.6192198858210025 -0.10126382613408126 2.8564554286235566 1.5419237391483809 4.355446922957299" Properties=species:S:1:pos:R:3:spacegroup_kinds:I:1:forces:R:3 spacegroup="P 1" unit_cell=conventional occupancy="_JSON {\"0\": {\"In\": 1}, \"1\": {\"In\": 1}, \"2\": {\"In\": 1}, \"3\": {\"In\": 1}, \"4\": {\"O\": 1}, \"5\": {\"O\": 1}, \"6\": {\"O\": 1}, \"7\": {\"O\": 1}, \"8\": {\"O\": 1}, \"9\": {\"O\": 1}}" n_minim_iter=2 energy=-11286.555123173055 stress="-0.1445609648559445 -0.00042931147523785404 -0.0002964335397472813 -0.00042931147523785404 -0.14399739744104714 -0.0001600157695113841 -0.0002964335397472813 -0.0001600157695113841 -0.14387614237620774" free_energy=-11286.555123173055 pbc="T T T"
In       9.61599850       5.19074663       3.58413760        0       0.32163603       0.17362016       0.11988228
In       7.09700331       3.83098500       2.64524131        1      -0.32163603      -0.17362016      -0.11988228
In       4.04499790       2.18350275       1.50767797        2       0.32163603       0.17362016       0.11988228
In       1.52600271       0.82374113       0.56878167        3      -0.32163603      -0.17362016      -0.11988228
O        5.50004548       2.08261536       0.04286998        4      -0.00000000      -0.02498765       0.03618850
O        6.38292929       4.75016828       0.93696599        5       0.02088980      -0.03869892       0.00000000
O        7.47361710       1.84331289       2.22059344        6      -0.02088980       0.01371127       0.03618850
O        3.66838411       4.17117486       1.93232583        7       0.02088980      -0.01371127      -0.03618850
O        5.64195573       3.93187239       4.11004930        8       0.00000000       0.02498765      -0.03618850
O        4.75907193       1.26431947       3.21595328        9      -0.02088980       0.03869892      -0.00000000
10
Lattice="5.382622072836243 -0.197175616944697 -0.1361469927940523 2.788722520385661 4.608093456864272 -0.13614699279403386 2.7887225203856607 1.505361299529326 4.35740159598832" Properties=species:S:1:pos:R:3:spacegroup_kinds:I:1:forces:R:3 spacegroup="P 1" unit_cell=conventional occupancy="_JSON {\"0\": {\"In\": 1}, \"1\": {\"In\": 1}, \"2\": {\"In\": 1}, \"3\": {\"In\": 1}, \"4\": {\"O\": 1}, \"5\": {\"O\": 1}, \"6\": {\"O\": 1}, \"7\": {\"O\": 1}, \"8\": {\"O\": 1}, \"9\": {\"O\": 1}}" n_minim_iter=3 energy=-11286.582133269358 stress="-0.1292864688880516 -0.0004459725060746817 -0.00030793775043939665 -0.0004459725060746817 -0.1287010301369149 -0.00016622577952309667 -0.00030793775043939665 -0.00016622577952309667 -0.12857506931697446" free_energy=-11286.582133269358 pbc="T T T"
In       9.48432395       5.11966828       3.53505901        0       0.12213075       0.06592657       0.04552137
In       6.95577673       3.75475044       2.59260241        1      -0.12213075      -0.06592657      -0.04552137
In       4.00429039       2.16152871       1.49250520        2       0.12213075       0.06592657       0.04552137
In       1.47574317       0.79661087       0.55004861        3      -0.12213075      -0.06592657      -0.04552137
O        5.43132782       2.03641800       0.00324053        4       0.00000000       0.12521910      -0.18134924
O        6.27732330       4.70039115       0.88512991        5      -0.10468379       0.19392956      -0.00000000
O        7.37405486       1.77323621       2.18194133        6       0.10468379      -0.06871046      -0.18134924
O        3.58601226       4.14304294       1.90316629        7      -0.10468379       0.06871046       0.18134924
O        5.52873930       3.87986115       4.08186709        8       0.00000000      -0.12521910       0.18134924
O        4.68274383       1.21588800       3.19997770        9       0.10468379      -0.19392956      -0.00000000
10
Lattice="5.31167885448205 -0.27595703930801196 -0.19054445790157432 2.6839327647947733 4.5920136601230235 -0.19054445790155577 2.683932764794772 1.448795455670523 4.361638267076022" Properties=species:S:1:pos:R:3:spacegroup_kinds:I:1:forces:R:3 spacegroup="P 1" unit_cell=conventional occupancy="_JSON {\"0\": {\"In\": 1}, \"1\": {\"In\": 1}, \"2\": {\"In\": 1}, \"3\": {\"In\": 1}, \"4\": {\"O\": 1}, \"5\": {\"O\": 1}, \"6\": {\"O\": 1}, \"7\": {\"O\": 1}, \"8\": {\"O\": 1}, \"9\": {\"O\": 1}}" n_minim_iter=4 energy=-11286.605709939047 stress="-0.10717849710553824 -0.001644343310154045 -0.0011353959517172827 -0.001644343310154045 -0.10501992840637436 -0.0006128903518260391 -0.0011353959517172827 -0.0006128903518260391 -0.10455549882389645" free_energy=-11286.605709939047 pbc="T T T"
In       9.28660615       5.01293958       3.46136434        0      -0.01852715      -0.01000102      -0.00690556
In       6.73271043       3.63433854       2.50945969        1       0.01852715       0.01000102       0.00690556
In       3.94683396       2.13051355       1.47108966        2      -0.01852715      -0.01000102      -0.00690556
In       1.39293824       0.75191250       0.51918502        3       0.01852715       0.01000102       0.00690556
O        5.32572553       1.97343440      -0.07075551        4      -0.00000000       0.15956745      -0.23109443
O        6.10740145       4.63719456       0.80459288        5      -0.13339919       0.24712560       0.00000000
O        7.22798236       1.65987891       2.11006363        6       0.13339919      -0.08755815      -0.23109443
O        3.45156203       4.10497318       1.87048573        7      -0.13339919       0.08755815       0.23109443
O        5.35381886       3.79141769       4.05130486        8       0.00000000      -0.15956745       0.23109443
O        4.57214294       1.12765753       3.17595647        9       0.13339919      -0.24712560       0.00000000
10
Lattice="5.323413505489235 -0.26278098528011756 -0.18144657774485623 2.701387071013138 4.594593898182189 -0.1814465777448379 2.701387071013138 1.458217345765069 4.360827687755873" Properties=species:S:1:pos:R:3:spacegroup_kinds:I:1:forces:R:3 spacegroup="P 1" unit_cell=conventional occupancy="_JSON {\"0\": {\"In\": 1}, \"1\": {\"In\": 1}, \"2\": {\"In\": 1}, \"3\": {\"In\": 1}, \"4\": {\"O\": 1}, \"5\": {\"O\": 1}, \"6\": {\"O\": 1}, \"7\": {\"O\": 1}, \"8\": {\"O\": 1}, \"9\": {\"O\": 1}}" n_minim_iter=5 energy=-11286.620089009319 stress="-0.1027858195283046 0.001981763803246254 0.001368380057291404 0.001981763803246254 -0.10538732815740669 0.0007386559129092022 0.001368380057291404 0.0007386559129092022 -0.10594705904325424" free_energy=-11286.620089009319 pbc="T T T"
In       9.33470178       5.03890176       3.47929086        0      -0.06641085      -0.03584879      -0.02475309
In       6.75457970       3.64614364       2.51761095        1       0.06641085       0.03584879       0.02475309
In       3.97160796       2.14388663       1.48032359        2      -0.06641085      -0.03584879      -0.02475309
In       1.39148587       0.75112851       0.51864368        3       0.06641085       0.03584879       0.02475309
O        5.34325367       1.99414510      -0.07319740        4       0.00000000       0.02913654      -0.04219715
O        6.12711240       4.66349084       0.81803706        5      -0.02435829       0.04512440      -0.00000000
O        7.26078201       1.67317696       2.10721645        6       0.02435829      -0.01598786      -0.04219715
O        3.46540564       4.11685331       1.89071809        7      -0.02435829       0.01598786       0.04219715
O        5.38293399       3.79588517       4.07113193        8       0.00000000      -0.02913654       0.04219715
O        4.59907526       1.12653943       3.17989748        9       0.02435829      -0.04512440       0.00000000
10
Lattice="5.316353835102735 -0.27070071117795863 -0.18691503718954844 2.6908923453127223 4.59303770515562 -0.18691503718952995 2.6908923453127227 1.4525522594027314 4.361309955255741" Properties=species:S:1:pos:R:3:spacegroup_kinds:I:1:forces:R:3 spacegroup="P 1" unit_cell=conventional occupancy="_JSON {\"0\": {\"In\": 1}, \"1\": {\"In\": 1}, \"2\": {\"In\": 1}, \"3\": {\"In\": 1}, \"4\": {\"O\": 1}, \"5\": {\"O\": 1}, \"6\": {\"O\": 1}, \"7\": {\"O\": 1}, \"8\": {\"O\": 1}, \"9\": {\"O\": 1}}" n_minim_iter=6 energy=-11286.620844388888 stress="-0.10368745899191437 -0.00013391906709312126 -9.246923445908031e-05 -0.00013391906709312126 -0.10351166023856141 -4.99151887832859e-05 -9.246923445908031e-05 -4.99151887832859e-05 -0.10347383603354832" free_energy=-11286.620844388888 pbc="T T T"
In       9.31128722       5.02626250       3.47056363        0      -0.01073766      -0.00579622      -0.00400221
In       6.73592058       3.63607139       2.51065620        1       0.01073766       0.00579622       0.00400221
In       3.96221796       2.13881788       1.47682369        2      -0.01073766      -0.00579622      -0.00400221
In       1.38685132       0.74862676       0.51691626        3       0.01073766       0.00579622       0.00400221
O        5.33271155       1.98817320      -0.08111335        4      -0.00000000       0.00110333      -0.00159791
O        6.10984050       4.65771384       0.80995494        5      -0.00092239       0.00170876       0.00000000
O        7.24647495       1.66162630       2.09954162        6       0.00092239      -0.00060542      -0.00159791
O        3.45166359       4.11326296       1.88793826        7      -0.00092239       0.00060542       0.00159791
O        5.36542698       3.78671607       4.06859324        8      -0.00000000      -0.00110333       0.00159791
O        4.58829803       1.11717542       3.17752495        9       0.00092239      -0.00170876      -0.00000000
10
Lattice="5.319375507023276 -0.267308302352623 -0.18457262656568826 2.695386473397547 4.593702349113545 -0.1845726265656698 2.6953864733975452 1.4549782040582389 4.361101552640592" Properties=species:S:1:pos:R:3:spacegroup_kinds:I:1:forces:R:3 spacegroup="P 1" unit_cell=conventional occupancy="_JSON {\"0\": {\"In\": 1}, \"1\": {\"In\": 1}, \"2\": {\"In\": 1}, \"3\": {\"In\": 1}, \"4\": {\"O\": 1}, \"5\": {\"O\": 1}, \"6\": {\"O\": 1}, \"7\": {\"O\": 1}, \"8\": {\"O\": 1}, \"9\": {\"O\": 1}}" n_minim_iter=7 energy=-11286.620935711098 stress="-0.10460598021678177 -5.5017321465878296e-05 -3.79886892780243e-05 -5.5017321465878296e-05 -0.10453375766840398 -2.0506411092953698e-05 -3.79886892780243e-05 -2.0506411092953698e-05 -0.10451821853077924" free_energy=-11286.620935711098 pbc="T T T"
In       9.31937807       5.03062997       3.47357930        0       0.00162588       0.00087765       0.00060601
In       6.74584462       3.64142842       2.51435515        1      -0.00162588      -0.00087765      -0.00060601
In       3.96430384       2.13994385       1.47760115        2       0.00162588       0.00087765       0.00060601
In       1.39077039       0.75074229       0.51837700        3      -0.00162588      -0.00087765      -0.00060601
O        5.33722487       1.99083247      -0.07787056        4       0.00000000      -0.00068846       0.00099706
O        6.11715071       4.66034455       0.81341645        5       0.00057555      -0.00106623      -0.00000000
O        7.25268551       1.66651711       2.10268022        6      -0.00057555       0.00037777       0.00099706
O        3.45746296       4.11485515       1.88927608        7       0.00057555      -0.00037777      -0.00099706
O        5.37292359       3.79053979       4.06982686        8      -0.00000000       0.00068846      -0.00099706
O        4.59299775       1.12102771       3.17853985        9      -0.00057555       0.00106623       0.00000000
