10
Lattice="6.035997081556975 -0.0330545715886425 -0.02282371720003909 3.2844496733431656 5.064261418661479 -0.022823717200035815 3.284449673343165 1.772956395754581 4.743826541660532" Properties=species:S:1:pos:R:3:spacegroup_kinds:I:1:forces:R:3 spacegroup="P 1" unit_cell=conventional occupancy="_JSON {\"0\": {\"In\": 1}, \"1\": {\"In\": 1}, \"2\": {\"In\": 1}, \"3\": {\"In\": 1}, \"4\": {\"O\": 1}, \"5\": {\"O\": 1}, \"6\": {\"O\": 1}, \"7\": {\"O\": 1}, \"8\": {\"O\": 1}, \"9\": {\"O\": 1}}" n_minim_iter=1 energy=-11287.4324534418 stress="0.041911474529788884 0.001386687861249087 0.0009574884826552792 0.001386687861249087 0.04009113628732208 0.0005168553328079106 0.0009574884826552792 0.0005168553328079106 0.03969947910711595" free_energy=-11287.4324534418 pbc="T T T"
In      10.77972920       5.81893216       4.01789089        0      -0.13178306      -0.07113692      -0.04911904
In       8.12761546       4.38731272       3.02937778        1       0.13178306       0.07113692       0.04911904
In       4.47728098       2.41685054       1.66880133        2      -0.13178306      -0.07113692      -0.04911904
In       1.82516724       0.98523109       0.68028822        3       0.13178306       0.07113692       0.04911904
O        6.16922265       2.34471080       0.20699867        4       0.00000000      -0.00480857       0.00696404
O        7.25951928       5.23910617       1.15172106        5       0.00401999      -0.00744714       0.00000000
O        8.36337570       2.20872707       2.57891194        6      -0.00401999       0.00263857       0.00696404
O        4.24152074       4.59543619       2.11926717        7       0.00401999      -0.00263857      -0.00696404
O        6.43567379       4.45945246       4.49118045        8       0.00000000       0.00480857      -0.00696404
O        5.34537716       1.56505708       3.54645805        9      -0.00401999       0.00744714       0.00000000
10
Lattice="6.01927553373702 -0.05050032826834336 -0.03486976704008687 3.260689455196907 5.059854989124491 -0.03486976704008359 3.260689455196907 1.7601305543148933 4.743973950538576" Properties=species:S:1:pos:R:3:spacegroup_kinds:I:1:forces:R:3 spacegroup="P 1" unit_cell=conventional occupancy="_JSON {\"0\": {\"In\": 1}, \"1\": {\"In\": 1}, \"2\": {\"In\": 1}, \"3\": {\"In\": 1}, \"4\": {\"O\": 1}, \"5\": {\"O\": 1}, \"6\": {\"O\": 1}, \"7\": {\"O\": 1}, \"8\": {\"O\": 1}, \"9\": {\"O\": 1}}" n_minim_iter=2 energy=-11287.43372167419 stress="0.03931844504707279 -0.001311229610383809 -0.0009053856201838928 -0.001311229610383809 0.04103972744373003 -0.000488730040990124 -0.0009053856201838928 -0.000488730040990124 0.04141007213878014" free_energy=-11287.43372167419 pbc="T T T"
In      10.72291632       5.78826439       3.99671522        0      -0.08529292      -0.04604139      -0.03179093
In       8.08806536       4.36596345       3.01463641        1       0.08529292       0.04604139       0.03179093
In       4.45258910       2.40352178       1.65959801        2      -0.08529292      -0.04604139      -0.03179093
In       1.81773813       0.98122084       0.67751920        3       0.08529292       0.04604139       0.03179093
O        6.14480138       2.32893838       0.19264334        4       0.00000000      -0.00697160       0.01009666
O        7.22186360       5.22201945       1.13368884        5       0.00582830      -0.01079708      -0.00000000
O        8.32842862       2.18403285       2.56463032        6      -0.00582830       0.00382547       0.01009666
O        4.21222584       4.58545238       2.10960410        7       0.00582830      -0.00382547      -0.01009666
O        6.39585307       4.44054685       4.48159108        8       0.00000000       0.00697160      -0.01009666
O        5.31879085       1.54746578       3.54054558        9      -0.00582830       0.01079708       0.00000000
10
Lattice="6.036647236455613 -0.03237792180011449 -0.022356500029324454 3.2853721101359206 5.064433658877201 -0.022356500029321203 3.2853721101359206 1.7734543300735834 4.743822070588773" Properties=species:S:1:pos:R:3:spacegroup_kinds:I:1:forces:R:3 spacegroup="P 1" unit_cell=conventional occupancy="_JSON {\"0\": {\"In\": 1}, \"1\": {\"In\": 1}, \"2\": {\"In\": 1}, \"3\": {\"In\": 1}, \"4\": {\"O\": 1}, \"5\": {\"O\": 1}, \"6\": {\"O\": 1}, \"7\": {\"O\": 1}, \"8\": {\"O\": 1}, \"9\": {\"O\": 1}}" n_minim_iter=3 energy=-11287.436010341025 stress="0.040391656726538695 0.0009671205696150056 0.0006677831628299272 0.0009671205696150056 0.03912209447947117 0.0003604714793150614 0.0006677831628299272 0.0003604714793150614 0.03884894020805925" free_energy=-11287.436010341025 pbc="T T T"
In      10.77614756       5.81699878       4.01655592        0      -0.08949181      -0.04830797      -0.03335597
In       8.13493964       4.39126633       3.03210769        1       0.08949181       0.04830797       0.03335597
In       4.47245183       2.41424375       1.66700138        2      -0.08949181      -0.04830797      -0.03335597
In       1.83124391       0.98851130       0.68255316        3       0.08949181       0.04830797       0.03335597
O        6.17017149       2.34500447       0.20801707        4       0.00000000      -0.00414283       0.00599988
O        7.26124816       5.23927670       1.15242077        5       0.00346343      -0.00641609      -0.00000000
O        8.36446693       2.20986033       2.57992811        6      -0.00346343       0.00227326       0.00599988
O        4.24292454       4.59564975       2.11918097        7       0.00346343      -0.00227326      -0.00599988
O        6.43721998       4.46050561       4.49109200        8       0.00000000       0.00414283      -0.00599988
O        5.34614331       1.56623338       3.54668831        9      -0.00346343       0.00641609       0.00000000
10
Lattice="6.0376185094390245 -0.03136729813180368 -0.021658678587611398 3.286749955265433 5.064691096648984 -0.021658678587608154 3.2867499552654325 1.7741980952633962 4.743815565723166" Properties=species:S:1:pos:R:3:spacegroup_kinds:I:1:forces:R:3 spacegroup="P 1" unit_cell=conventional occupancy="_JSON {\"0\": {\"In\": 1}, \"1\": {\"In\": 1}, \"2\": {\"In\": 1}, \"3\": {\"In\": 1}, \"4\": {\"O\": 1}, \"5\": {\"O\": 1}, \"6\": {\"O\": 1}, \"7\": {\"O\": 1}, \"8\": {\"O\": 1}, \"9\": {\"O\": 1}}" n_minim_iter=4 energy=-11287.438929070542 stress="0.03704629387138013 -2.141394087450498e-05 -1.478602580590954e-05 -2.141394087450498e-05 0.03707440446403567 -7.98154424288315e-06 -1.478602580590954e-05 -7.98154424288315e-06 0.037080452635648124" free_energy=-11287.438929070542 pbc="T T T"
In      10.76764239       5.81240766       4.01338581        0       0.00328500       0.00177325       0.00122441
In       8.14903525       4.39887519       3.03736150        1      -0.00328500      -0.00177325      -0.00122441
In       4.46208318       2.40864672       1.66313671        2       0.00328500       0.00177325       0.00122441
In       1.84347604       0.99511424       0.68711240        3      -0.00328500      -0.00177325      -0.00122441
O        6.17158886       2.34523040       0.20984629        4       0.00000000      -0.00314987       0.00456182
O        7.26400849       5.23920207       1.15346588        5       0.00263331      -0.00487828       0.00000000
O        8.36591919       2.21166976       2.58175407        6      -0.00263331       0.00172840       0.00456182
O        4.24519924       4.59585215       2.11874414        7       0.00263331      -0.00172840      -0.00456182
O        6.43952957       4.46229150       4.49065192        8      -0.00000000       0.00314987      -0.00456182
O        5.34710994       1.56831984       3.54703234        9      -0.00263331       0.00487828       0.00000000
