10
Lattice="6.365571711857705 0.07766834235966952 0.053628899005976435 3.5578593808976406 5.279031370996631 0.05362889900598054 3.5578593808976406 1.920543826794952 4.91757660683949" Properties=species:S:1:pos:R:3:spacegroup_kinds:I:1:forces:R:3 spacegroup="P 1" unit_cell=conventional occupancy="_JSON {\"0\": {\"In\": 1}, \"1\": {\"In\": 1}, \"2\": {\"In\": 1}, \"3\": {\"In\": 1}, \"4\": {\"O\": 1}, \"5\": {\"O\": 1}, \"6\": {\"O\": 1}, \"7\": {\"O\": 1}, \"8\": {\"O\": 1}, \"9\": {\"O\": 1}}" n_minim_iter=5 energy=-11286.401707513924 stress="0.09511059223182965 1.01237772886999e-05 6.9903265435898204e-06 1.01237772886999e-05 0.09509730250688082 3.7733992704356865e-06 6.9903265435898204e-06 3.7733992704356865e-06 0.09509444314197464" free_energy=-11286.401707513924 pbc="T T T"
In      11.43126778       6.17063476       4.26073659        0      -0.00308424      -0.00166488      -0.00114958
In       8.79066794       4.74523056       3.27651502        1       0.00308424       0.00166488       0.00114958
In       4.69062254       2.53201299       1.74831939        2      -0.00308424      -0.00166488      -0.00114958
In       2.05002270       1.10660879       0.76409782        3       0.00308424       0.00166488       0.00114958
O        6.55310848       2.54909040       0.28235775        4       0.00000000      -0.00083100       0.00120350
O        7.75440443       5.56774288       1.30983750        5       0.00069472      -0.00128699      -0.00000000
O        8.90967191       2.43928018       2.74114605        6      -0.00069472       0.00045599       0.00120350
O        4.57161857       4.83796338       2.28368836        7       0.00069472      -0.00045599      -0.00120350
O        6.92818200       4.72815316       4.74247666        8      -0.00000000       0.00083100      -0.00120350
O        5.72688606       1.70950067       3.71499691        9      -0.00069472       0.00128699       0.00000000
