10
Lattice="6.143727191915157 -0.015245173665678886 -0.01052657819139388 3.35845228380363 5.144551922316654 -0.01052657819139227 3.358452283803629 1.8129032406045067 4.814551602222794" Properties=species:S:1:pos:R:3:spacegroup_kinds:I:1:forces:R:3 spacegroup="P 1" unit_cell=conventional occupancy="_JSON {\"0\": {\"In\": 1}, \"1\": {\"In\": 1}, \"2\": {\"In\": 1}, \"3\": {\"In\": 1}, \"4\": {\"O\": 1}, \"5\": {\"O\": 1}, \"6\": {\"O\": 1}, \"7\": {\"O\": 1}, \"8\": {\"O\": 1}, \"9\": {\"O\": 1}}" n_minim_iter=1 energy=-11287.116950563677 stress="0.05969584126260762 -0.0025287134677719264 -0.0017460411161489971 -0.0025287134677719264 0.06301534376702117 -0.0009425185554970464 -0.0017460411161489971 -0.0009425185554970464 0.06372955553208602" free_energy=-11287.116950563677 pbc="T T T"
In      10.96217590       5.91741747       4.08589361        0      -0.12622829      -0.06813843      -0.04704863
In       8.32877175       4.49589753       3.10435406        1       0.12622829       0.06813843       0.04704863
In       4.53186002       2.44631248       1.68914439        2      -0.12622829      -0.06813843      -0.04704863
In       1.89845587       1.02479253       0.70760484        3       0.12622829       0.06813843       0.04704863
O        6.28702154       2.39698150       0.22415375        4      -0.00000000       0.03243712      -0.04697724
O        7.40691722       5.33638069       1.18784804        5      -0.02711760       0.05023608       0.00000000
O        8.52557815       2.26725831       2.63142955        6       0.02711760      -0.01779896      -0.04697724
O        4.33505362       4.67495169       2.16206890        7      -0.02711760       0.01779896       0.04697724
O        6.57361023       4.54522850       4.56934470        8      -0.00000000      -0.03243712       0.04697724
O        5.45371455       1.60582931       3.60565041        9       0.02711760      -0.05023608      -0.00000000
10
Lattice="6.176668769707619 0.018724555990713074 0.012929042794652294 3.404926910525845 5.15345131282478 0.012929042794653872 3.404926910525842 1.8379903921465752 4.814563210944463" Properties=species:S:1:pos:R:3:spacegroup_kinds:I:1:forces:R:3 spacegroup="P 1" unit_cell=conventional occupancy="_JSON {\"0\": {\"In\": 1}, \"1\": {\"In\": 1}, \"2\": {\"In\": 1}, \"3\": {\"In\": 1}, \"4\": {\"O\": 1}, \"5\": {\"O\": 1}, \"6\": {\"O\": 1}, \"7\": {\"O\": 1}, \"8\": {\"O\": 1}, \"9\": {\"O\": 1}}" n_minim_iter=2 energy=-11287.120487102831 stress="0.06018582958740063 0.0015795778819287076 0.0010906763310309568 0.0015795778819287076 0.05811228001294607 0.000588750558105451 0.0010906763310309568 0.000588750558105451 0.0576661428263926" free_energy=-11287.120487102831 pbc="T T T"
In      11.06766211       5.97435926       4.12521112        0      -0.14660941      -0.07914023      -0.05464521
In       8.41212179       4.54089014       3.13542083        1       0.14660941       0.07914023       0.05464521
In       4.57440081       2.46927613       1.70500047        2      -0.14660941      -0.07914023      -0.05464521
In       1.91886049       1.03580701       0.71521018        3       0.14660941       0.07914023       0.05464521
O        6.33496504       2.42816580       0.25165239        4       0.00000000       0.02563811      -0.03713054
O        7.48043018       5.37048394       1.22303437        5      -0.02143359       0.03970631       0.00000000
O        8.59442680       2.31530656       2.65893399        6       0.02143359      -0.01406819      -0.03713054
O        4.39209580       4.69485971       2.18148731        7      -0.02143359       0.01406819       0.03713054
O        6.65155756       4.58200048       4.58876891        8      -0.00000000      -0.02563811       0.03713054
O        5.50609242       1.63968234       3.61738693        9       0.02143359      -0.03970631      -0.00000000
10
Lattice="6.157270532973539 -0.001242612788435876 -0.0008580066692520146 3.377590021612087 5.148190711912036 -0.0008580066692504239 3.377590021612084 1.8232338524336837 4.814528706086664" Properties=species:S:1:pos:R:3:spacegroup_kinds:I:1:forces:R:3 spacegroup="P 1" unit_cell=conventional occupancy="_JSON {\"0\": {\"In\": 1}, \"1\": {\"In\": 1}, \"2\": {\"In\": 1}, \"3\": {\"In\": 1}, \"4\": {\"O\": 1}, \"5\": {\"O\": 1}, \"6\": {\"O\": 1}, \"7\": {\"O\": 1}, \"8\": {\"O\": 1}, \"9\": {\"O\": 1}}" n_minim_iter=3 energy=-11287.124212429017 stress="0.05826782347164532 -0.00111289459668725 -0.0007684380801497574 -0.00111289459668725 0.059728746761876124 -0.0004148053244280226 -0.0007684380801497574 -0.0004148053244280226 0.06004307356363327" free_energy=-11287.124212429017 pbc="T T T"
In      11.00040165       5.93805185       4.10014136        0      -0.09204491      -0.04968614      -0.03430758
In       8.36827423       4.51722109       3.11907768        1       0.09204491       0.04968614       0.03430758
In       4.54417636       2.45296088       1.69373501        2      -0.09204491      -0.04968614      -0.03430758
In       1.91204894       1.03213011       0.71267134        3       0.09204491       0.04968614       0.03430758
O        6.30674792       2.41086489       0.23397719        4       0.00000000       0.01764223      -0.02555045
O        7.43630516       5.35202263       1.20234517        5      -0.01474899       0.02732290      -0.00000000
O        8.55478069       2.28647874       2.64124154        6       0.01474899      -0.00968067      -0.02555045
O        4.35766990       4.68370323       2.17157116        7      -0.01474899       0.00968067       0.02555045
O        6.60570267       4.55931707       4.57883551        8       0.00000000      -0.01764223       0.02555045
O        5.47614542       1.61815934       3.61046753        9       0.01474899      -0.02732290       0.00000000
10
Lattice="6.170909093335439 0.012806762759290628 0.008842889725020292 3.3968191456304484 5.1518834170874745 0.008842889725021945 3.3968191456304453 1.8336137948300637 4.814544775092281" Properties=species:S:1:pos:R:3:spacegroup_kinds:I:1:forces:R:3 spacegroup="P 1" unit_cell=conventional occupancy="_JSON {\"0\": {\"In\": 1}, \"1\": {\"In\": 1}, \"2\": {\"In\": 1}, \"3\": {\"In\": 1}, \"4\": {\"O\": 1}, \"5\": {\"O\": 1}, \"6\": {\"O\": 1}, \"7\": {\"O\": 1}, \"8\": {\"O\": 1}, \"9\": {\"O\": 1}}" n_minim_iter=4 energy=-11287.128401965303 stress="0.055279217503701815 9.175533928082673e-05 6.335577271487934e-05 9.175533928082673e-05 0.055158768082717836 3.419964817214758e-05 6.335577271487934e-05 3.419964817214758e-05 0.05513285263369626" free_energy=-11287.128401965303 pbc="T T T"
In      11.03331386       5.95581797       4.11240862        0      -0.00429050      -0.00231603      -0.00159918
In       8.41350723       4.54163800       3.13593722        1       0.00429050       0.00231603       0.00159918
In       4.55104017       2.45666598       1.69629334        2      -0.00429050      -0.00231603      -0.00159918
In       1.93123353       1.04248602       0.71982194        3       0.00429050       0.00231603       0.00159918
O        6.32659140       2.42572647       0.24251425        4      -0.00000000      -0.01098099       0.01590327
O        7.46508906       5.36917304       1.21690053        5       0.00918016      -0.01700649       0.00000000
O        8.58491288       2.30528142       2.64978664        6      -0.00918016       0.00602551       0.01590327
O        4.37963452       4.69302257       2.18244392        7       0.00918016      -0.00602551      -0.01590327
O        6.63795600       4.57257752       4.58971631        8      -0.00000000       0.01098099      -0.01590327
O        5.49945833       1.62913095       3.61533003        9      -0.00918016       0.01700649       0.00000000
10
Lattice="6.169108475560392 0.010954848661477442 0.007564169063525467 3.394282897902661 5.151394277372469 0.0075641690635271305 3.394282897902658 1.8322447202277976 4.8145404248792785" Properties=species:S:1:pos:R:3:spacegroup_kinds:I:1:forces:R:3 spacegroup="P 1" unit_cell=conventional occupancy="_JSON {\"0\": {\"In\": 1}, \"1\": {\"In\": 1}, \"2\": {\"In\": 1}, \"3\": {\"In\": 1}, \"4\": {\"O\": 1}, \"5\": {\"O\": 1}, \"6\": {\"O\": 1}, \"7\": {\"O\": 1}, \"8\": {\"O\": 1}, \"9\": {\"O\": 1}}" n_minim_iter=5 energy=-11287.128453000152 stress="0.05541836959655501 -0.0001345687771412903 -9.291785053805296e-05 -0.0001345687771412903 0.0555950212409707 -5.015735168454089e-05 -9.291785053805296e-05 -5.015735168454089e-05 0.05563302895074519" free_energy=-11287.128453000152 pbc="T T T"
In      11.02789438       5.95289252       4.11038863        0      -0.00663425      -0.00358119      -0.00247276
In       8.40861704       4.53899827       3.13411452        1       0.00663425       0.00358119       0.00247276
In       4.54905724       2.45559559       1.69555425        2      -0.00663425      -0.00358119      -0.00247276
In       1.92977990       1.04170134       0.71928014        3       0.00663425       0.00358119       0.00247276
O        6.32397281       2.42359429       0.24163806        4       0.00000000      -0.00532420       0.00771081
O        7.46143534       5.36664336       1.21498136        5       0.00445106      -0.00824571       0.00000000
O        8.58079318       2.30289632       2.64890827        6      -0.00445106       0.00292151       0.00771081
O        4.37688110       4.69169754       2.18076050        7       0.00445106      -0.00292151      -0.00771081
O        6.63370147       4.57099957       4.58803071        8       0.00000000       0.00532420      -0.00771081
O        5.49623894       1.62795049       3.61468741        9      -0.00445106       0.00824571       0.00000000
