10
Lattice="5.87940641 1.8936522339830572e-15 1.1129488109227956e-15 3.226158737651723 4.9152130710094895 4.468149961477016e-16 3.226158737651722 1.7414907629919851 4.596360457561627" Properties=species:S:1:pos:R:3:spacegroup_kinds:I:1:forces:R:3 spacegroup="P 1" unit_cell=conventional occupancy="_JSON {\"0\": {\"In\": 1}, \"1\": {\"In\": 1}, \"2\": {\"In\": 1}, \"3\": {\"In\": 1}, \"4\": {\"O\": 1}, \"5\": {\"O\": 1}, \"6\": {\"O\": 1}, \"7\": {\"O\": 1}, \"8\": {\"O\": 1}, \"9\": {\"O\": 1}}" n_minim_iter=1 energy=-11287.679957929011 stress="0.0017466395388936716 -0.0009499670228279185 -0.0006559388801067131 -0.0009499670228279185 0.002993683915573975 -0.0003540778965004303 -0.0006559388801067131 -0.0003540778965004303 0.003261993327163862" free_energy=-11287.679957929011 pbc="T T T"
In      10.57093869       5.70622638       3.94006913        0       0.00344253       0.00185829       0.00128312
In       7.92664715       4.27882938       2.95447156        1      -0.00344253      -0.00185829      -0.00128312
In       4.40507675       2.37787446       1.64188890        2       0.00344253       0.00185829       0.00128312
In       1.76078520       0.95047747       0.65629133        3      -0.00344253      -0.00185829      -0.00128312
O        6.02263418       2.30932706       0.21474656        4       0.00000000       0.00851626      -0.01233371
O        7.09636402       5.12094210       1.14909012        5      -0.00711963       0.01318931       0.00000000
O        8.17506308       2.18091285       2.51292679        6       0.00711963      -0.00467306      -0.01233371
O        4.15666081       4.47579100       2.08343367        7      -0.00711963       0.00467306       0.01233371
O        6.30908971       4.34737678       4.38161390        8       0.00000000      -0.00851626       0.01233371
O        5.23535988       1.53576175       3.44727035        9       0.00711963      -0.01318931      -0.00000000
10
Lattice="5.875801820753492 0.0019597900824544438 0.001353207513019089 3.2258192150665588 4.91112423679697 0.0013532075130184326 3.2258192150665566 1.74130748761902 4.592057418411396" Properties=species:S:1:pos:R:3:spacegroup_kinds:I:1:forces:R:3 spacegroup="P 1" unit_cell=conventional occupancy="_JSON {\"0\": {\"In\": 1}, \"1\": {\"In\": 1}, \"2\": {\"In\": 1}, \"3\": {\"In\": 1}, \"4\": {\"O\": 1}, \"5\": {\"O\": 1}, \"6\": {\"O\": 1}, \"7\": {\"O\": 1}, \"8\": {\"O\": 1}, \"9\": {\"O\": 1}}" n_minim_iter=2 energy=-11287.680562078827 stress="-0.0008023062882691702 -0.0005332021629459096 -0.00036816860095508657 -0.0005332021629459096 -0.00010235908653030615 -0.00019873858181399158 -0.00036816860095508657 -0.00019873858181399158 4.823894125254311e-05" free_energy=-11287.680562078827 pbc="T T T"
In      10.56727579       5.70424914       3.93870387        0       0.00025148       0.00013575       0.00009373
In       7.92388459       4.27733815       2.95344188        1      -0.00025148      -0.00013575      -0.00009373
In       4.40355567       2.37705338       1.64132195        2       0.00025148       0.00013575       0.00009373
In       1.76016447       0.95014239       0.65605997        3      -0.00025148      -0.00013575      -0.00009373
O        6.01976098       2.30895744       0.21614124        4      -0.00000000       0.01295111      -0.01875652
O        7.09396597       5.11810476       1.15004417        5      -0.01082719       0.02005767      -0.00000000
O        8.17137520       2.18164632       2.51216995        6       0.01082719      -0.00710656      -0.01875652
O        4.15606506       4.47274520       2.08259389        7      -0.01082719       0.00710656       0.01875652
O        6.30767928       4.34543408       4.37862260        8      -0.00000000      -0.01295111       0.01875652
O        5.23347429       1.53628676       3.44471967        9       0.01082719      -0.02005767      -0.00000000
10
Lattice="5.880257714964346 0.005760992697804824 0.00397788450452552 3.2314420859003725 4.912763583657005 0.003977884504524862 3.23144208590037 1.7443427312058597 4.592660480436245" Properties=species:S:1:pos:R:3:spacegroup_kinds:I:1:forces:R:3 spacegroup="P 1" unit_cell=conventional occupancy="_JSON {\"0\": {\"In\": 1}, \"1\": {\"In\": 1}, \"2\": {\"In\": 1}, \"3\": {\"In\": 1}, \"4\": {\"O\": 1}, \"5\": {\"O\": 1}, \"6\": {\"O\": 1}, \"7\": {\"O\": 1}, \"8\": {\"O\": 1}, \"9\": {\"O\": 1}}" n_minim_iter=3 energy=-11287.680689723702 stress="7.776628384799119e-05 5.3134879620943565e-05 3.668888679495006e-05 5.3134879620943565e-05 8.014861483500877e-06 1.980477839043835e-05 3.668888679495006e-05 1.980477839043835e-05 -6.992596117186835e-06" free_energy=-11287.680689723702 pbc="T T T"
In      10.58073932       5.71151679       3.94372208        0      -0.00681639      -0.00367951      -0.00254065
In       7.93397352       4.28278418       2.95720230        1       0.00681639       0.00367951       0.00254065
In       4.40916837       2.38008314       1.64341396        2      -0.00681639      -0.00367951      -0.00254065
In       1.76240258       0.95135053       0.65689417        3       0.00681639       0.00367951       0.00254065
O        6.02591433       2.31280402       0.21916719        4      -0.00000000       0.01119704      -0.01621618
O        7.10307537       5.12267609       1.15413195        5      -0.00936078       0.01734111      -0.00000000
O        8.18019538       2.18727841       2.51549743        6       0.00936078      -0.00614406      -0.01621618
O        4.16294652       4.47558891       2.08511882        7      -0.00936078       0.00614406       0.01621618
O        6.31722756       4.35006330       4.38144906        8      -0.00000000      -0.01119704       0.01621618
O        5.24006652       1.54019123       3.44648430        9       0.00936078      -0.01734111       0.00000000
10
Lattice="5.879811018532077 0.0057965251890320585 0.004002419190416349 3.231226679149353 4.912370645758418 0.004002419190415687 3.2312266791493487 1.744226453955516 4.592284339845493" Properties=species:S:1:pos:R:3:spacegroup_kinds:I:1:forces:R:3 spacegroup="P 1" unit_cell=conventional occupancy="_JSON {\"0\": {\"In\": 1}, \"1\": {\"In\": 1}, \"2\": {\"In\": 1}, \"3\": {\"In\": 1}, \"4\": {\"O\": 1}, \"5\": {\"O\": 1}, \"6\": {\"O\": 1}, \"7\": {\"O\": 1}, \"8\": {\"O\": 1}, \"9\": {\"O\": 1}}" n_minim_iter=4 energy=-11287.680788023401 stress="-2.9950328211493807e-05 9.6174248944361e-06 6.640695322617451e-06 9.6174248944361e-06 -4.257535246292509e-05 3.58466980354244e-06 6.640695322617451e-06 3.58466980354244e-06 -4.529170607219045e-05" free_energy=-11287.680788023401 pbc="T T T"
In      10.57951942       5.71085829       3.94326740        0       0.00202136       0.00109114       0.00075342
In       7.93387715       4.28273216       2.95716638        1      -0.00202136      -0.00109114      -0.00075342
In       4.40838723       2.37966147       1.64312281        2       0.00202136       0.00109114       0.00075342
In       1.76274496       0.95153535       0.65702179        3      -0.00202136      -0.00109114      -0.00075342
O        6.02547161       2.31350156       0.21794170        4       0.00000000       0.00041097      -0.00059519
O        7.10185765       5.12361515       1.15407472        5      -0.00034358       0.00063648      -0.00000000
O        8.18031225       2.18668163       2.51408387        6       0.00034358      -0.00022551      -0.00059519
O        4.16195214       4.47571201       2.08620531        7      -0.00034358       0.00022551       0.00059519
O        6.31679278       4.34889208       4.38234748        8       0.00000000      -0.00041097       0.00059519
O        5.24040674       1.53877848       3.44621447        9       0.00034358      -0.00063648       0.00000000
