10
Lattice="5.9284067017721656 0.005844432528410958 0.004035498535072009 3.257932242930565 4.952970591421083 0.004035498535066403 3.2579322429305604 1.7586422023508694 4.630238824168908" Properties=species:S:1:pos:R:3:spacegroup_kinds:I:1:forces:R:3 spacegroup="P 1" unit_cell=conventional occupancy="_JSON {\"0\": {\"In\": 1}, \"1\": {\"In\": 1}, \"2\": {\"In\": 1}, \"3\": {\"In\": 1}, \"4\": {\"O\": 1}, \"5\": {\"O\": 1}, \"6\": {\"O\": 1}, \"7\": {\"O\": 1}, \"8\": {\"O\": 1}, \"9\": {\"O\": 1}}" n_minim_iter=1 energy=-11287.639525184286 stress="0.023885334672301847 -0.0004102242151862978 -0.000283254055641141 -0.0004102242151862978 0.024423845785661258 -0.00015290144125728905 -0.000283254055641141 -0.00015290144125728905 0.024539709825480933" free_energy=-11287.639525184286 pbc="T T T"
In      10.66695743       5.75805760       3.97585786        0      -0.02415223      -0.01303745      -0.00900218
In       7.99944936       4.31812825       2.98160688        1       0.02415223       0.01303745       0.00900218
In       4.44482184       2.39932899       1.65670295        2      -0.02415223      -0.01303745      -0.00900218
In       1.77731376       0.95939963       0.66245196        3       0.02415223       0.01303745       0.00900217
O        6.07527115       2.33262227       0.21974296        4       0.00000000      -0.03594715       0.05206066
O        7.16055335       5.16596100       1.16361296        5       0.03005200      -0.05567214      -0.00000000
O        8.24792120       2.20475420       2.53486237        6      -0.03005200       0.01972499       0.05206066
O        4.19635000       4.51270304       2.10344746        7       0.03005200      -0.01972499      -0.05206066
O        6.36900004       4.38483496       4.41856687        8      -0.00000000       0.03594715      -0.05206066
O        5.28371785       1.55149624       3.47469687        9      -0.03005200       0.05567214       0.00000000
10
Lattice="5.932990829362623 0.010563261263264257 0.007293783467638598 3.2643926182319323 4.954213620527716 0.007293783467633005 3.2643926182319283 1.7621295335170297 4.6302467865338155" Properties=species:S:1:pos:R:3:spacegroup_kinds:I:1:forces:R:3 spacegroup="P 1" unit_cell=conventional occupancy="_JSON {\"0\": {\"In\": 1}, \"1\": {\"In\": 1}, \"2\": {\"In\": 1}, \"3\": {\"In\": 1}, \"4\": {\"O\": 1}, \"5\": {\"O\": 1}, \"6\": {\"O\": 1}, \"7\": {\"O\": 1}, \"8\": {\"O\": 1}, \"9\": {\"O\": 1}}" n_minim_iter=2 energy=-11287.639932716482 stress="0.02441208365990688 0.00029298871410759835 0.00020230459055502087 0.00029298871410759835 0.024027470383943268 0.00010920466225014945 0.00020230459055502087 0.00010920466225014945 0.02394471842805432" free_energy=-11287.639932716482 pbc="T T T"
In      10.68161671       5.76597073       3.98132176        0      -0.03512435      -0.01896024      -0.01309178
In       8.01104739       4.32438890       2.98592977        1       0.03512435       0.01896024       0.01309178
In       4.45072868       2.40251752       1.65890459        2      -0.03512435      -0.01896024      -0.01309178
In       1.78015936       0.96093570       0.66351259        3       0.03512435       0.01896024       0.01309178
O        6.08193944       2.33637390       0.22440817        4       0.00000000      -0.03098759       0.04487794
O        7.17126282       5.16980183       1.16850237        5       0.02590578      -0.04799115       0.00000000
O        8.25700867       2.21175189       2.53953156        6      -0.02590578       0.01700357       0.04487794
O        4.20476741       4.51515454       2.10530280        7       0.02590578      -0.01700357      -0.04487794
O        6.37983664       4.39053253       4.42042619        8      -0.00000000       0.03098759      -0.04487794
O        5.29051326       1.55710460       3.47633198        9      -0.02590578       0.04799115       0.00000000
10
Lattice="5.938276359096397 0.01599664755755615 0.011045460354054668 3.2718352418942223 4.955650931980094 0.011045460354049087 3.2718352418942183 1.7661470854772094 4.630261616182185" Properties=species:S:1:pos:R:3:spacegroup_kinds:I:1:forces:R:3 spacegroup="P 1" unit_cell=conventional occupancy="_JSON {\"0\": {\"In\": 1}, \"1\": {\"In\": 1}, \"2\": {\"In\": 1}, \"3\": {\"In\": 1}, \"4\": {\"O\": 1}, \"5\": {\"O\": 1}, \"6\": {\"O\": 1}, \"7\": {\"O\": 1}, \"8\": {\"O\": 1}, \"9\": {\"O\": 1}}" n_minim_iter=3 energy=-11287.641278783316 stress="0.02383051696384035 0.0006935713141328713 0.00047890124621570055 0.0006935713141328713 0.02292004935229226 0.00025851241835646695 0.00047890124621570055 0.00025851241835646695 0.022724156538608143" free_energy=-11287.641278783316 pbc="T T T"
In      10.69552570       5.77347884       3.98650601        0      -0.04367523      -0.02357603      -0.01627892
In       8.02739457       4.33321316       2.99202280        1       0.04367523       0.02357603       0.01627892
In       4.45455228       2.40458151       1.66032974        2      -0.04367523      -0.02357603      -0.01627892
In       1.78642115       0.96431583       0.66584653        3       0.04367523       0.02357603       0.01627892
O        6.08962490       2.33749031       0.23442341        4      -0.00000000       0.00624392      -0.00904279
O        7.18628309       5.16926513       1.17413360        5      -0.00521995       0.00967009       0.00000000
O        8.26480194       2.22157118       2.54955422        6       0.00521995      -0.00342617      -0.00904279
O        4.21714491       4.51622349       2.10279832        7      -0.00521995       0.00342617       0.00904279
O        6.39232196       4.40030437       4.41792913        8      -0.00000000      -0.00624392       0.00904279
O        5.29566376       1.56852955       3.47821894        9       0.00521995      -0.00967009      -0.00000000
10
Lattice="5.93546149327049 0.01310403029724796 0.009048148782788817 3.267872421071489 4.95488493239824 0.009048148782783247 3.2678724210714853 1.764007942174173 4.630252967414419" Properties=species:S:1:pos:R:3:spacegroup_kinds:I:1:forces:R:3 spacegroup="P 1" unit_cell=conventional occupancy="_JSON {\"0\": {\"In\": 1}, \"1\": {\"In\": 1}, \"2\": {\"In\": 1}, \"3\": {\"In\": 1}, \"4\": {\"O\": 1}, \"5\": {\"O\": 1}, \"6\": {\"O\": 1}, \"7\": {\"O\": 1}, \"8\": {\"O\": 1}, \"9\": {\"O\": 1}}" n_minim_iter=4 energy=-11287.641548256272 stress="0.023222920091357322 0.0001333349839212496 9.206593331969663e-05 0.0001333349839212496 0.023047888075092438 4.969748358827098e-05 9.206593331969663e-05 4.969748358827098e-05 0.023010228839991122" free_energy=-11287.641548256272 pbc="T T T"
In      10.68553411       5.76808535       3.98278188        0      -0.03278933      -0.01769978      -0.01222145
In       8.02127541       4.32991002       2.98974202        1       0.03278933       0.01769978       0.01222145
In       4.44993094       2.40208690       1.65860725        2      -0.03278933      -0.01769978      -0.01222145
In       1.78567224       0.96391157       0.66556739        3       0.03278933       0.01769978       0.01222145
O        6.08553234       2.33463622       0.23236360        4       0.00000000       0.00789528      -0.01143438
O        7.18017429       5.16605090       1.17113547        5      -0.00660049       0.01222759      -0.00000000
O        8.25876280       2.21758300       2.54749009        6       0.00660049      -0.00433231      -0.01143438
O        4.21244355       4.51441391       2.10085918        7      -0.00660049       0.00433231       0.01143438
O        6.38567401       4.39736070       4.41598567        8      -0.00000000      -0.00789528       0.01143438
O        5.29103205       1.56594602       3.47721380        9       0.00660049      -0.01222759       0.00000000
10
Lattice="5.933187110052409 0.010765175167357142 0.0074332021811261825 3.2646691227648112 4.954266917592798 0.0074332021811206175 3.264669122764809 1.7622787915446394 4.630247229265533" Properties=species:S:1:pos:R:3:spacegroup_kinds:I:1:forces:R:3 spacegroup="P 1" unit_cell=conventional occupancy="_JSON {\"0\": {\"In\": 1}, \"1\": {\"In\": 1}, \"2\": {\"In\": 1}, \"3\": {\"In\": 1}, \"4\": {\"O\": 1}, \"5\": {\"O\": 1}, \"6\": {\"O\": 1}, \"7\": {\"O\": 1}, \"8\": {\"O\": 1}, \"9\": {\"O\": 1}}" n_minim_iter=5 energy=-11287.641762763544 stress="0.02238411572907993 -0.0005396940529040854 -0.00037265115936482705 -0.0005396940529040854 0.02309258498939721 -0.00020115828309988045 -0.00037265115936482705 -0.00020115828309988045 0.023245016590650067" free_energy=-11287.641762763544 pbc="T T T"
In      10.67574888       5.76280325       3.97913467        0      -0.01345096      -0.00726087      -0.00501353
In       8.01803916       4.32816308       2.98853579        1       0.01345096       0.00726087       0.00501353
In       4.44448620       2.39914781       1.65657785        2      -0.01345096      -0.00726087      -0.00501353
In       1.78677648       0.96450764       0.66597897        3       0.01345096       0.00726087       0.00501353
O        6.08222490       2.33221376       0.23086529        4       0.00000000       0.00805135      -0.01166042
O        7.17533337       5.16327470       1.16871161        5      -0.00673097       0.01246931       0.00000000
O        8.25378555       2.21442223       2.54598891        6       0.00673097      -0.00441795      -0.01166042
O        4.20873981       4.51288867       2.09912473        7      -0.00673097       0.00441795       0.01166042
O        6.38030047       4.39509714       4.41424834        8      -0.00000000      -0.00805135       0.01166042
O        5.28719200       1.56403620       3.47640203        9       0.00673097      -0.01246931      -0.00000000
10
Lattice="5.94042368652717 0.018201773523882313 0.012568068847434387 3.274857023667303 4.956236107627367 0.012568068847428827 3.274857023667301 1.7677782529037167 4.630269361437257" Properties=species:S:1:pos:R:3:spacegroup_kinds:I:1:forces:R:3 spacegroup="P 1" unit_cell=conventional occupancy="_JSON {\"0\": {\"In\": 1}, \"1\": {\"In\": 1}, \"2\": {\"In\": 1}, \"3\": {\"In\": 1}, \"4\": {\"O\": 1}, \"5\": {\"O\": 1}, \"6\": {\"O\": 1}, \"7\": {\"O\": 1}, \"8\": {\"O\": 1}, \"9\": {\"O\": 1}}" n_minim_iter=6 energy=-11287.642180999459 stress="0.02247196891440412 -1.8247892143961357e-05 -1.2599913733016194e-05 -1.8247892143961357e-05 0.02249592335873738 -6.801472975282454e-06 -1.2599913733016194e-05 -6.801472975282454e-06 0.022501077306382903" free_energy=-11287.642180999459 pbc="T T T"
In      10.69456887       5.77296235       3.98614938        0      -0.00063164      -0.00034096      -0.00023543
In       8.04063774       4.34036187       2.99695888        1       0.00063164       0.00034096       0.00023543
In       4.44950001       2.40185428       1.65844663        2      -0.00063164      -0.00034096      -0.00023543
In       1.79556887       0.96925380       0.66925613        3       0.00063164       0.00034096       0.00023543
O        6.09274628       2.33902981       0.23691601        4      -0.00000000      -0.00025981       0.00037627
O        7.19147418       5.17073044       1.17641945        5       0.00021720      -0.00040237       0.00000000
O        8.26887541       2.22496148       2.55205069        6      -0.00021720       0.00014256       0.00037627
O        4.22126233       4.51725467       2.10335482        7       0.00021720      -0.00014256      -0.00037627
O        6.39739146       4.40318633       4.41848950        8      -0.00000000       0.00025981      -0.00037627
O        5.29866357       1.57148570       3.47898606        9      -0.00021720       0.00040237       0.00000000
