10
Lattice="6.288378540068007 0.09154111870807226 0.06320785613468453 3.5270995113792263 5.206885199083095 0.06320785613468786 3.5270995113792227 1.9039395512483017 4.8467167128583215" Properties=species:S:1:pos:R:3:spacegroup_kinds:I:1:forces:R:3 spacegroup="P 1" unit_cell=conventional occupancy="_JSON {\"0\": {\"In\": 1}, \"1\": {\"In\": 1}, \"2\": {\"In\": 1}, \"3\": {\"In\": 1}, \"4\": {\"O\": 1}, \"5\": {\"O\": 1}, \"6\": {\"O\": 1}, \"7\": {\"O\": 1}, \"8\": {\"O\": 1}, \"9\": {\"O\": 1}}" n_minim_iter=1 energy=-11286.308774879506 stress="0.1029613726179623 0.000675778873384696 0.0004666158158594305 0.000675778873384696 0.10207426156725213 0.0002518807028935982 0.0004666158158594305 0.0002518807028935982 0.1018833940675941" free_energy=-11286.308774879506 pbc="T T T"
In      11.35237988       6.12805082       4.23133298        0      -0.03526476      -0.01903603      -0.01314411
In       8.66148648       4.67549799       3.22836566        1       0.03526476       0.01903603       0.01314411
In       4.68109110       2.52686789       1.74476677        2      -0.03526476      -0.01903603      -0.01314411
In       1.99019770       1.07431506       0.74179945        3       0.03526476       0.01903603       0.01314411
O        6.47983367       2.51082700       0.31257207        4      -0.00000000       0.04606656      -0.06671615
O        7.68788740       5.47887604       1.30649096        5      -0.03851187       0.07134429      -0.00000000
O        8.79887944       2.43372537       2.73593042        6       0.03851187      -0.02527773      -0.06671615
O        4.54369813       4.76864051       2.23720201        7      -0.03851187       0.02527773       0.06671615
O        6.86274391       4.69153888       4.66056036        8      -0.00000000      -0.04606656       0.06671615
O        5.65469017       1.72348984       3.66664147        9       0.03851187      -0.07134429       0.00000000
10
Lattice="6.279033154871207 0.08210971558191851 0.0566956048058887 3.514086794329612 5.204247627398509 0.05669560480589204 3.514086794329608 1.8969152451350122 4.846557573336121" Properties=species:S:1:pos:R:3:spacegroup_kinds:I:1:forces:R:3 spacegroup="P 1" unit_cell=conventional occupancy="_JSON {\"0\": {\"In\": 1}, \"1\": {\"In\": 1}, \"2\": {\"In\": 1}, \"3\": {\"In\": 1}, \"4\": {\"O\": 1}, \"5\": {\"O\": 1}, \"6\": {\"O\": 1}, \"7\": {\"O\": 1}, \"8\": {\"O\": 1}, \"9\": {\"O\": 1}}" n_minim_iter=2 energy=-11286.309607020394 stress="0.10158672384702844 -0.00029050014884461997 -0.00020058627071076288 -0.00029050014884461997 0.10196807032368099 -0.00010827710746935596 -0.00020058627071076288 -0.00010827710746935596 0.10205011940808538" free_energy=-11286.309607020394 pbc="T T T"
In      11.32178257       6.11153430       4.21992855        0      -0.02379717      -0.01284579      -0.00886984
In       8.63902755       4.66337460       3.21999463        1       0.02379717       0.01284579       0.00886984
In       4.66817920       2.51989801       1.73995416        2      -0.02379717      -0.01284579      -0.00886984
In       1.98542418       1.07173830       0.74002024        3       0.02379717       0.01284579       0.00886984
O        6.46631827       2.50287944       0.30378760        4      -0.00000000       0.04150632      -0.06011175
O        7.66657697       5.47045553       1.29668280        5      -0.03469949       0.06428175       0.00000000
O        8.78014636       2.41987836       2.72706639        6       0.03469949      -0.02277543      -0.06011175
O        4.52706040       4.76339424       2.23288240        7      -0.03469949       0.02277543       0.06011175
O        6.84088849       4.68039316       4.65616119        8      -0.00000000      -0.04150632       0.06011175
O        5.64062978       1.71281707       3.66326598        9       0.03469949      -0.06428175       0.00000000
10
Lattice="6.275432839412535 0.07847036460145572 0.054182684093937464 3.509068707021635 5.203234737113007 0.05418268409394082 3.509068707021631 1.8942064656218602 4.8465007333489" Properties=species:S:1:pos:R:3:spacegroup_kinds:I:1:forces:R:3 spacegroup="P 1" unit_cell=conventional occupancy="_JSON {\"0\": {\"In\": 1}, \"1\": {\"In\": 1}, \"2\": {\"In\": 1}, \"3\": {\"In\": 1}, \"4\": {\"O\": 1}, \"5\": {\"O\": 1}, \"6\": {\"O\": 1}, \"7\": {\"O\": 1}, \"8\": {\"O\": 1}, \"9\": {\"O\": 1}}" n_minim_iter=3 energy=-11286.311305147907 stress="0.09983256034062968 -0.0006605797752631585 -0.00045612105126087064 -0.0006605797752631585 0.10069971917161066 -0.0002462155970210436 -0.00045612105126087064 -0.0002462155970210436 0.10088629382916789" free_energy=-11286.311305147907 pbc="T T T"
In      11.30756008       6.10385695       4.21462745        0       0.00117171       0.00063249       0.00043673
In       8.63279531       4.66001041       3.21767170        1      -0.00117171      -0.00063249      -0.00043673
In       4.66077496       2.51590117       1.73719440        2       0.00117171       0.00063249       0.00043673
In       1.98601018       1.07205463       0.74023865        3      -0.00117171      -0.00063249      -0.00043673
O        6.46110899       2.50366556       0.29482145        4       0.00000000       0.00382786      -0.00554372
O        7.65514172       5.47317485       1.29289921        5      -0.00320011       0.00592829       0.00000000
O        8.77614496       2.41242439       2.71807181        6       0.00320011      -0.00210043      -0.00554372
O        4.51742530       4.76348719       2.23679429        7      -0.00320011       0.00210043       0.00554372
O        6.83246128       4.67224602       4.66004466        8      -0.00000000      -0.00382786       0.00554372
O        5.63842854       1.70273673       3.66196689        9       0.00320011      -0.00592829      -0.00000000
