10
Lattice="5.830398505768207 0.005747812590274157 0.0039687838254883106 3.2040722299632853 4.871088268404897 0.003968783825485646 3.20407222996328 1.7295683957887589 4.553691890557113" Properties=species:S:1:pos:R:3:spacegroup_kinds:I:1:forces:R:3 spacegroup="P 1" unit_cell=conventional occupancy="_JSON {\"0\": {\"In\": 1}, \"1\": {\"In\": 1}, \"2\": {\"In\": 1}, \"3\": {\"In\": 1}, \"4\": {\"O\": 1}, \"5\": {\"O\": 1}, \"6\": {\"O\": 1}, \"7\": {\"O\": 1}, \"8\": {\"O\": 1}, \"9\": {\"O\": 1}}" n_minim_iter=1 energy=-11287.635481355841 stress="-0.02640800533706453 0.001519975714440935 0.001049521872667117 0.001519975714440935 -0.028403313724371743 0.0005665352502004844 0.001049521872667117 0.0005665352502004844 -0.02883261682774127" free_energy=-11287.635481355841 pbc="T T T"
In      10.49061169       5.66286561       3.91012913        0       0.00409904       0.00221267       0.00152782
In       7.86720276       4.24674111       2.93231506        1      -0.00409904      -0.00221267      -0.00152782
In       4.37134021       2.35966337       1.62931440        2       0.00409904       0.00221267       0.00152782
In       1.74793128       0.94353888       0.65150033        3      -0.00409904      -0.00221267      -0.00152782
O        5.97483500       2.29405945       0.21611017        4      -0.00000000       0.04681833      -0.06780490
O        7.04217535       5.08055753       1.14437615        5      -0.03914036       0.07250857       0.00000000
O        8.11156688       2.16830529       2.49295612        6       0.03914036      -0.02569024      -0.06780490
O        4.12697610       4.43809920       2.06867334        7      -0.03914036       0.02569024       0.06780490
O        6.26370798       4.31234504       4.34551929        8      -0.00000000      -0.04681833       0.06780490
O        5.19636762       1.52584696       3.41725331        9       0.03914036      -0.07250857       0.00000000
10
Lattice="5.814579997376378 -0.010582698080989482 -0.007307204317139303 3.181739880502081 4.866824824483698 -0.007307204317141981 3.1817398805020756 1.7175133224135088 4.553700171813891" Properties=species:S:1:pos:R:3:spacegroup_kinds:I:1:forces:R:3 spacegroup="P 1" unit_cell=conventional occupancy="_JSON {\"0\": {\"In\": 1}, \"1\": {\"In\": 1}, \"2\": {\"In\": 1}, \"3\": {\"In\": 1}, \"4\": {\"O\": 1}, \"5\": {\"O\": 1}, \"6\": {\"O\": 1}, \"7\": {\"O\": 1}, \"8\": {\"O\": 1}, \"9\": {\"O\": 1}}" n_minim_iter=2 energy=-11287.636400526972 stress="-0.02767344858974587 -0.0010658469835032479 -0.0007359523634902867 -0.0010658469835032479 -0.026274285821507242 -0.00039726943049165215 -0.0007359523634902867 -0.00039726943049165215 -0.025973247185645518" free_energy=-11287.636400526972 pbc="T T T"
In      10.43882508       5.63491103       3.89082688        0       0.04678343       0.02525385       0.01743743
In       7.82826457       4.22572215       2.91780177        1      -0.04678343      -0.02525385      -0.01743743
In       4.34979520       2.34803331       1.62128400        2       0.04678343       0.02525385       0.01743743
In       1.73923469       0.93884443       0.64825888        3      -0.04678343      -0.02525385      -0.01743743
O        5.95180494       2.27998873       0.20156784        4      -0.00000000       0.03564759      -0.05162681
O        7.00609243       5.06559344       1.12746424        5      -0.02980156       0.05520820      -0.00000000
O        8.07925734       2.14471188       2.47841792        6       0.02980156      -0.01956061      -0.05162681
O        4.09880243       4.42904358       2.06066784        7      -0.02980156       0.01956061       0.05162681
O        6.22625482       4.29376673       4.33751793        8       0.00000000      -0.03564759       0.05162681
O        5.17196734       1.50816202       3.41162153        9       0.02980156      -0.05520820      -0.00000000
10
Lattice="5.824128226369847 -0.0007165957357498905 -0.0004947992859460007 3.195227313088599 4.869393445635713 -0.0004947992859486818 3.195227313088594 1.7247938814857493 4.553688487327141" Properties=species:S:1:pos:R:3:spacegroup_kinds:I:1:forces:R:3 spacegroup="P 1" unit_cell=conventional occupancy="_JSON {\"0\": {\"In\": 1}, \"1\": {\"In\": 1}, \"2\": {\"In\": 1}, \"3\": {\"In\": 1}, \"4\": {\"O\": 1}, \"5\": {\"O\": 1}, \"6\": {\"O\": 1}, \"7\": {\"O\": 1}, \"8\": {\"O\": 1}, \"9\": {\"O\": 1}}" n_minim_iter=3 energy=-11287.63739061698 stress="-0.02640666454876614 0.0005962847708975582 0.0004117262555612085 0.0005962847708975582 -0.027189421796178274 0.00022225114501103435 0.0004117262555612085 0.00022225114501103435 -0.027357836922328405" free_energy=-11287.63739061698 pbc="T T T"
In      10.47108040       5.65232255       3.90284930        0       0.02369258       0.01278933       0.00883085
In       7.85079389       4.23788355       2.92619904        1      -0.02369258      -0.01278933      -0.00883085
In       4.36378897       2.35558719       1.62649985        2       0.02369258       0.01278933       0.00883085
In       1.74350247       0.94114819       0.64984960        3      -0.02369258      -0.01278933      -0.00883085
O        5.96570983       2.28985422       0.20837208        4       0.00000000       0.02691935      -0.03898610
O        7.02673801       5.07674522       1.13767993        5      -0.02250471       0.04169059       0.00000000
O        8.09990897       2.15821205       2.48521633        6       0.02250471      -0.01477124      -0.03898610
O        4.11467390       4.43525869       2.06748256        7      -0.02250471       0.01477124       0.03898610
O        6.24887303       4.30361652       4.34432681        8      -0.00000000      -0.02691935       0.03898610
O        5.18784485       1.51672552       3.41501897        9       0.02250471      -0.04169059      -0.00000000
10
Lattice="5.818741926552326 -0.006278894012165818 -0.004335488084551159 3.1876216236201964 4.867942626711707 -0.004335488084553859 3.1876216236201906 1.7206883060840108 4.553692563922114" Properties=species:S:1:pos:R:3:spacegroup_kinds:I:1:forces:R:3 spacegroup="P 1" unit_cell=conventional occupancy="_JSON {\"0\": {\"In\": 1}, \"1\": {\"In\": 1}, \"2\": {\"In\": 1}, \"3\": {\"In\": 1}, \"4\": {\"O\": 1}, \"5\": {\"O\": 1}, \"6\": {\"O\": 1}, \"7\": {\"O\": 1}, \"8\": {\"O\": 1}, \"9\": {\"O\": 1}}" n_minim_iter=4 energy=-11287.63861815026 stress="-0.025674105862080594 1.3111631980872206e-05 9.053397002701285e-06 1.3111631980872206e-05 -0.025691317813054344 4.887052313941924e-06 9.053397002701285e-06 4.887052313941924e-06 -0.025695021073436023" free_energy=-11287.63861815026 pbc="T T T"
In      10.45650590       5.64445519       3.89741699        0       0.03689356       0.01991526       0.01375121
In       7.83447187       4.22907288       2.92011539        1      -0.03689356      -0.01991526      -0.01375121
In       4.35951331       2.35327917       1.62490620        2       0.03689356       0.01991526       0.01375121
In       1.73747929       0.93789686       0.64760460        3      -0.03689356      -0.01991526      -0.01375121
O        5.95786726       2.28822895       0.19883273        4       0.00000000      -0.01056559       0.01530167
O        7.01180245       5.07655407       1.13191991        5       0.00883288      -0.01636315       0.00000000
O        8.09155369       2.14843892       2.47567901        6      -0.00883288       0.00579757       0.01530167
O        4.10243149       4.43391313       2.06934258        7       0.00883288      -0.00579757      -0.01530167
O        6.23611792       4.29412310       4.34618886        8      -0.00000000       0.01056559      -0.01530167
O        5.18218273       1.50579798       3.41310168        9      -0.00883288       0.01636315      -0.00000000
10
Lattice="5.816115887444511 -0.008993852500362876 -0.0062101287701303715 3.1839109397619727 4.867237001958232 -0.00621012877013305 3.1839109397619665 1.7186852671175572 4.553696910371149" Properties=species:S:1:pos:R:3:spacegroup_kinds:I:1:forces:R:3 spacegroup="P 1" unit_cell=conventional occupancy="_JSON {\"0\": {\"In\": 1}, \"1\": {\"In\": 1}, \"2\": {\"In\": 1}, \"3\": {\"In\": 1}, \"4\": {\"O\": 1}, \"5\": {\"O\": 1}, \"6\": {\"O\": 1}, \"7\": {\"O\": 1}, \"8\": {\"O\": 1}, \"9\": {\"O\": 1}}" n_minim_iter=5 energy=-11287.639090334615 stress="-0.0255014753765621 -1.770838029127241e-05 -1.2227388351762862e-05 -1.770838029127241e-05 -0.025478229163461742 -6.600382810156851e-06 -1.2227388351762862e-05 -6.600382810156851e-06 -0.02547322759535195" free_energy=-11287.639090334615 pbc="T T T"
In      10.45124873       5.64161736       3.89545751        0       0.01318036       0.00711480       0.00491267
In       7.82465793       4.22377528       2.91645748        1      -0.01318036      -0.00711480      -0.00491267
In       4.35927985       2.35315315       1.62481918        2       0.01318036       0.00711480       0.00491267
In       1.73268905       0.93531107       0.64581915        3      -0.01318036      -0.00711480      -0.00491267
O        5.95404239       2.28585133       0.19647290        4       0.00000000      -0.00326709       0.00473157
O        7.00584154       5.07400788       1.12910904        5       0.00273130      -0.00505981       0.00000000
O        8.08615418       2.14453977       2.47332136        6      -0.00273130       0.00179272       0.00473157
O        4.09778360       4.43238866       2.06795530        7       0.00273130      -0.00179272      -0.00473157
O        6.22989539       4.29107710       4.34480375        8      -0.00000000       0.00326709      -0.00473157
O        5.17809624       1.50292055       3.41216762        9      -0.00273130       0.00505981      -0.00000000
10
Lattice="5.814876592850954 -0.0102758217077676 -0.007095310493647809 3.182159179096325 4.866904390009193 -0.007095310493650487 3.1821591790963186 1.7177396611302898 4.55369950057113" Properties=species:S:1:pos:R:3:spacegroup_kinds:I:1:forces:R:3 spacegroup="P 1" unit_cell=conventional occupancy="_JSON {\"0\": {\"In\": 1}, \"1\": {\"In\": 1}, \"2\": {\"In\": 1}, \"3\": {\"In\": 1}, \"4\": {\"O\": 1}, \"5\": {\"O\": 1}, \"6\": {\"O\": 1}, \"7\": {\"O\": 1}, \"8\": {\"O\": 1}, \"9\": {\"O\": 1}}" n_minim_iter=6 energy=-11287.639156115307 stress="-0.025381922705285668 -5.017354264585458e-06 -3.4644118166531055e-06 -5.017354264585458e-06 -0.02537533630570914 -1.8700995697242343e-06 -3.4644118166531055e-06 -1.8700995697242343e-06 -0.025373919199609428" free_energy=-11287.639156115307 pbc="T T T"
In      10.44904654       5.64042861       3.89463669        0      -0.00000936      -0.00000505      -0.00000349
In       7.81974590       4.22112375       2.91462663        1       0.00000936       0.00000505       0.00000349
In       4.35944906       2.35324449       1.62488225        2      -0.00000936      -0.00000505      -0.00000349
In       1.73014842       0.93393963       0.64487219        3       0.00000936       0.00000505       0.00000349
O        5.95223704       2.28479688       0.19526023        4      -0.00000000      -0.00002767       0.00004008
O        7.00297089       5.07291145       1.12778191        5       0.00002313      -0.00004286      -0.00000000
O        8.08366237       2.14266161       2.47210998        6      -0.00002313       0.00001518       0.00004008
O        4.09553259       4.43170663       2.06739891        7       0.00002313      -0.00001518      -0.00004008
O        6.22695792       4.28957136       4.34424866        8      -0.00000000       0.00002767      -0.00004008
O        5.17622407       1.50145679       3.41172697        9      -0.00002313       0.00004286      -0.00000000
