10
Lattice="6.36356730789802 0.07992679612330274 0.05518832959403486 3.5586475992632174 5.276116416375317 0.05518832959403597 3.558647599263216 1.920969309579429 4.914298230930072" Properties=species:S:1:pos:R:3:spacegroup_kinds:I:1:forces:R:3 spacegroup="P 1" unit_cell=conventional occupancy="_JSON {\"0\": {\"In\": 1}, \"1\": {\"In\": 1}, \"2\": {\"In\": 1}, \"3\": {\"In\": 1}, \"4\": {\"O\": 1}, \"5\": {\"O\": 1}, \"6\": {\"O\": 1}, \"7\": {\"O\": 1}, \"8\": {\"O\": 1}, \"9\": {\"O\": 1}}" n_minim_iter=1 energy=-11285.599614156485 stress="0.11568861618996569 0.0007206825331530037 0.0004976211623733032 0.0007206825331530037 0.11474255903204983 0.00026861748931892644 0.0004976211623733032 0.00026861748931892644 0.11453900890608393" free_energy=-11285.599614156485 pbc="T T T"
In      11.46289208       6.18770566       4.27252381        0      -0.02519132      -0.01359836      -0.00938947
In       8.75840169       4.72781313       3.26448853        1       0.02519132       0.01359836       0.00938947
In       4.72246083       2.54919940       1.76018636        2      -0.02519132      -0.01359836      -0.00938947
In       2.01797044       1.08930687       0.75215109        3       0.02519132       0.01359836       0.00938947
O        6.55199929       2.54528554       0.29015976        4      -0.00000000       0.05113128      -0.07405115
O        7.75776598       5.55980479       1.31135705        5      -0.04274601       0.07918813      -0.00000000
O        8.90488019       2.44324014       2.74730887        6       0.04274601      -0.02805685      -0.07405115
O        4.57598233       4.83377239       2.27736602        7      -0.04274601       0.02805685       0.07405115
O        6.92886323       4.73172700       4.73451514        8       0.00000000      -0.05113128       0.07405115
O        5.72309654       1.71720774       3.71331784        9       0.04274601      -0.07918813       0.00000000
10
Lattice="6.35308611640862 0.069314270337359 0.047860529665756706 3.544024216056062 5.273177412773492 0.04786052966575783 3.544024216056062 1.9130755607437815 4.91414616752181" Properties=species:S:1:pos:R:3:spacegroup_kinds:I:1:forces:R:3 spacegroup="P 1" unit_cell=conventional occupancy="_JSON {\"0\": {\"In\": 1}, \"1\": {\"In\": 1}, \"2\": {\"In\": 1}, \"3\": {\"In\": 1}, \"4\": {\"O\": 1}, \"5\": {\"O\": 1}, \"6\": {\"O\": 1}, \"7\": {\"O\": 1}, \"8\": {\"O\": 1}, \"9\": {\"O\": 1}}" n_minim_iter=2 energy=-11285.600626427502 stress="0.11435222881185489 -0.00024288422835703013 -0.0001677081465066189 -0.00024288422835703013 0.11467106873433958 -9.052939263965899e-05 -0.0001677081465066189 -9.052939263965899e-05 0.11473966914197015" free_energy=-11285.600626427502 pbc="T T T"
In      11.42875224       6.16927687       4.25979899        0      -0.01860275      -0.01004182      -0.00693374
In       8.73294959       4.71407401       3.25500186        1       0.01860275       0.01004182       0.00693374
In       4.70818497       2.54149325       1.75486537        2      -0.01860275      -0.01004182      -0.00693374
In       2.01238231       1.08629039       0.75006825        3       0.01860275       0.01004182       0.00693374
O        6.53682670       2.53636264       0.28026719        4       0.00000000       0.04651180      -0.06736096
O        7.73382314       5.55036974       1.30032734        5      -0.03888409       0.07203383      -0.00000000
O        8.88385448       2.42766834       2.73734028        6       0.03888409      -0.02552204      -0.06736096
O        4.55728008       4.82789892       2.27252695        7      -0.03888409       0.02552204       0.06736096
O        6.90430786       4.71920462       4.72960004        8      -0.00000000      -0.04651180       0.06736096
O        5.70731142       1.70519752       3.70953989        9       0.03888409      -0.07203383      -0.00000000
10
Lattice="6.346360010346677 0.06248922332773353 0.043147930610980344 3.5346276813956727 5.271299406965132 0.04314793061098146 3.5346276813956723 1.9080032814029586 4.914059692346291" Properties=species:S:1:pos:R:3:spacegroup_kinds:I:1:forces:R:3 spacegroup="P 1" unit_cell=conventional occupancy="_JSON {\"0\": {\"In\": 1}, \"1\": {\"In\": 1}, \"2\": {\"In\": 1}, \"3\": {\"In\": 1}, \"4\": {\"O\": 1}, \"5\": {\"O\": 1}, \"6\": {\"O\": 1}, \"7\": {\"O\": 1}, \"8\": {\"O\": 1}, \"9\": {\"O\": 1}}" n_minim_iter=3 energy=-11285.602552603794 stress="0.11230708432304777 -0.0007818963456035317 -0.0005398884394676196 -0.0007818963456035317 0.11333349831192711 -0.0002914334986774592 -0.0005398884394676196 -0.0002914334986774592 0.1135543377134289" free_energy=-11285.602552603794 pbc="T T T"
In      11.40514486       6.15653353       4.25099989        0      -0.00115739      -0.00062476      -0.00043139
In       8.71827821       4.70615435       3.24953345        1       0.00115739       0.00062476       0.00043139
In       4.69733717       2.53563757       1.75082211        2      -0.00115739      -0.00062476      -0.00043139
In       2.01047053       1.08525840       0.74935567        3       0.00115739       0.00062476       0.00043139
O        6.52708385       2.53462154       0.26812478        4      -0.00000000       0.00742912      -0.01075926
O        7.71510564       5.55049649       1.29323682        5      -0.00621078       0.01150564      -0.00000000
O        8.87368975       2.41546899       2.72515462        6       0.00621078      -0.00407652      -0.01075926
O        4.54192564       4.82632294       2.27520094        7      -0.00621078       0.00407652       0.01075926
O        6.88853153       4.70717039       4.73223078        8       0.00000000      -0.00742912       0.01075926
O        5.70050974       1.69129543       3.70711874        9       0.00621078      -0.01150564      -0.00000000
10
Lattice="6.352577317071352 0.06879838877370822 0.04750432069520919 3.5433137471853806 5.27303512947471 0.04750432069521032 3.5433137471853806 1.9126920473843025 4.91413932128831" Properties=species:S:1:pos:R:3:spacegroup_kinds:I:1:forces:R:3 spacegroup="P 1" unit_cell=conventional occupancy="_JSON {\"0\": {\"In\": 1}, \"1\": {\"In\": 1}, \"2\": {\"In\": 1}, \"3\": {\"In\": 1}, \"4\": {\"O\": 1}, \"5\": {\"O\": 1}, \"6\": {\"O\": 1}, \"7\": {\"O\": 1}, \"8\": {\"O\": 1}, \"9\": {\"O\": 1}}" n_minim_iter=4 energy=-11285.602961248142 stress="0.11285089853226384 -0.00018088184291429682 -0.00012489636981273766 -0.00018088184291429682 0.11308834644337427 -6.741945856381905e-05 -0.00012489636981273766 -6.741945856381905e-05 0.11313943484991963" free_energy=-11285.602961248142 pbc="T T T"
In      11.42498510       6.16724335       4.25839487        0      -0.00166651      -0.00089959      -0.00062115
In       8.73382213       4.71454501       3.25532708        1       0.00166651       0.00089959       0.00062115
In       4.70538269       2.53998057       1.75382089        2      -0.00166651      -0.00089959      -0.00062115
In       2.01421972       1.08728223       0.75075310        3       0.00166651       0.00089959       0.00062115
O        6.53608987       2.54086822       0.27263332        4       0.00000000       0.00155548      -0.00225274
O        7.72853103       5.55756093       1.29979131        5      -0.00130039       0.00240901       0.00000000
O        8.88696245       2.42420147       2.72970298        6       0.00130039      -0.00085353      -0.00225274
O        4.55224237       4.83032410       2.27944499        7      -0.00130039       0.00085353       0.00225274
O        6.90311496       4.71365736       4.73651465        8      -0.00000000      -0.00155548       0.00225274
O        5.71067379       1.69696465       3.70935665        9       0.00130039      -0.00240901      -0.00000000
