10
Lattice="5.498179560662449 -0.06904533766792056 -0.04767483543652931 2.959248990683728 4.634392209457173 -0.047674835436530866 2.959248990683719 1.5974120313807472 4.350648094595946" Properties=species:S:1:pos:R:3:spacegroup_kinds:I:1:forces:R:3 spacegroup="P 1" unit_cell=conventional occupancy="_JSON {\"0\": {\"In\": 1}, \"1\": {\"In\": 1}, \"2\": {\"In\": 1}, \"3\": {\"In\": 1}, \"4\": {\"O\": 1}, \"5\": {\"O\": 1}, \"6\": {\"O\": 1}, \"7\": {\"O\": 1}, \"8\": {\"O\": 1}, \"9\": {\"O\": 1}}" n_minim_iter=1 energy=-11285.846498733223 stress="-0.21311473756499144 0.0032573165488788847 0.0022491313055114795 0.0032573165488788847 -0.21739069471898362 0.0012140882433344868 0.0022491313055114795 0.0012140882433344868 -0.21831069369371772" free_energy=-11285.846498733223 pbc="T T T"
In       9.83800590       5.31058692       3.66688564        0       0.08270606       0.04464500       0.03082674
In       7.28701043       3.93355144       2.71606200        1      -0.08270606      -0.04464500      -0.03082674
In       4.12966713       2.22920747       1.53923643        2       0.08270606       0.04464500       0.03082674
In       1.57867165       0.85217199       0.58841278        3      -0.08270606      -0.04464500      -0.03082674
O        5.60325917       2.15191338       0.10478161        4      -0.00000000       0.02476569      -0.03586705
O        6.54303653       4.82344459       1.01614977        5      -0.02070424       0.03835517       0.00000000
O        7.62273080       1.95053797       2.28010565        6       0.02070424      -0.01358948      -0.03586705
O        3.79394675       4.21222095       1.97519277        7      -0.02070424       0.01358948       0.03586705
O        5.81341838       4.01084554       4.15051682        8       0.00000000      -0.02476569       0.03586705
O        4.87364102       1.33931432       3.23914866        9       0.02070424      -0.03835517      -0.00000000
10
Lattice="5.4850503116984415 -0.08289859821122657 -0.057240317176051804 2.9404632900771603 4.631017678562364 -0.05724031717605337 2.940463290077151 1.5872714503545071 4.350881581467962" Properties=species:S:1:pos:R:3:spacegroup_kinds:I:1:forces:R:3 spacegroup="P 1" unit_cell=conventional occupancy="_JSON {\"0\": {\"In\": 1}, \"1\": {\"In\": 1}, \"2\": {\"In\": 1}, \"3\": {\"In\": 1}, \"4\": {\"O\": 1}, \"5\": {\"O\": 1}, \"6\": {\"O\": 1}, \"7\": {\"O\": 1}, \"8\": {\"O\": 1}, \"9\": {\"O\": 1}}" n_minim_iter=2 energy=-11285.848817262255 stress="-0.21444092448327923 -0.0002950516106892625 -0.0002037289913981311 -0.0002950516106892625 -0.21405360319294572 -0.0001099735571899342 -0.0002037289913981311 -0.0001099735571899342 -0.21397026859309595" free_energy=-11285.848817262255 pbc="T T T"
In       9.79488164       5.28730831       3.65081209        0       0.12194332       0.06582539       0.04545151
In       7.25408371       3.91577750       2.70378933        1      -0.12194332      -0.06582539      -0.04545151
In       4.11189319       2.21961305       1.53261162        2       0.12194332       0.06582539       0.04545151
In       1.57109526       0.84808223       0.58558886        3      -0.12194332      -0.06582539      -0.04545151
O        5.58401938       2.13975381       0.09294403        4      -0.00000000      -0.00085947       0.00124473
O        6.51305863       4.81048074       1.00185992        5       0.00071852      -0.00133108       0.00000000
O        7.59544343       1.93081598       2.26838482        6      -0.00071852       0.00047161       0.00124473
O        3.77053347       4.20457457       1.96801613        7       0.00071852      -0.00047161      -0.00124473
O        5.78195752       3.99563673       4.14345693        8       0.00000000       0.00085947      -0.00124473
O        4.85291827       1.32490980       3.23454103        9      -0.00071852       0.00133108       0.00000000
10
Lattice="5.479479584681146 -0.08879418409897924 -0.061311136386936776 2.932477771270568 4.6295955597731515 -0.06131113638693837 2.9324777712705585 1.5829608418661274 4.350994033049794" Properties=species:S:1:pos:R:3:spacegroup_kinds:I:1:forces:R:3 spacegroup="P 1" unit_cell=conventional occupancy="_JSON {\"0\": {\"In\": 1}, \"1\": {\"In\": 1}, \"2\": {\"In\": 1}, \"3\": {\"In\": 1}, \"4\": {\"O\": 1}, \"5\": {\"O\": 1}, \"6\": {\"O\": 1}, \"7\": {\"O\": 1}, \"8\": {\"O\": 1}, \"9\": {\"O\": 1}}" n_minim_iter=3 energy=-11285.852211474861 stress="-0.21172928567629187 2.3303665497773924e-05 1.6090853121452304e-05 2.3303665497773924e-05 -0.2117598769529199 8.68589432031692e-06 1.6090853121452304e-05 8.68589432031692e-06 -0.211766458856663" free_energy=-11285.852211474861 pbc="T T T"
In       9.78570674       5.28235567       3.64739236        0       0.00659231       0.00355855       0.00245713
In       7.23094596       3.90328767       2.69516528        1      -0.00659231      -0.00355855      -0.00245713
In       4.11348918       2.22047456       1.53320648        2       0.00659231       0.00355855       0.00245713
In       1.55872840       0.84140656       0.58097940        3      -0.00659231      -0.00355855      -0.00245713
O        5.57584858       2.13468504       0.08776284        4      -0.00000000       0.04470059      -0.06473787
O        6.50023788       4.80513226       0.99578181        5      -0.03736991       0.06922878       0.00000000
O        7.58393705       1.92237445       2.26325986        6       0.03736991      -0.02452819      -0.06473787
O        3.76049808       4.20138778       1.96511191        7      -0.03736991       0.02452819       0.06473787
O        5.76858656       3.98907719       4.14060892        8      -0.00000000      -0.04470059       0.06473787
O        4.84419726       1.31862997       3.23258996        9       0.03736991      -0.06922878      -0.00000000
10
Lattice="5.476715217741104 -0.09172369872107308 -0.06333392506803497 2.928511813911292 4.628892023900111 -0.06333392506803656 2.928511813911282 1.5808200054506731 4.3510528226347285" Properties=species:S:1:pos:R:3:spacegroup_kinds:I:1:forces:R:3 spacegroup="P 1" unit_cell=conventional occupancy="_JSON {\"0\": {\"In\": 1}, \"1\": {\"In\": 1}, \"2\": {\"In\": 1}, \"3\": {\"In\": 1}, \"4\": {\"O\": 1}, \"5\": {\"O\": 1}, \"6\": {\"O\": 1}, \"7\": {\"O\": 1}, \"8\": {\"O\": 1}, \"9\": {\"O\": 1}}" n_minim_iter=4 energy=-11285.853518463759 stress="-0.21030299185048443 -0.00032161438687465 -0.00022207021504765565 -0.00032161438687465 -0.20988080097166525 -0.00011987420836260257 -0.00022207021504765565 -0.00011987420836260257 -0.20978996395632213" free_energy=-11285.853518463759 pbc="T T T"
In       9.78329676       5.28105476       3.64649410        0      -0.02049356      -0.01106249      -0.00763849
In       7.21731152       3.89592775       2.69008336        1       0.02049356       0.01106249       0.00763849
In       4.11642734       2.22206059       1.53430161        2      -0.02049356      -0.01106249      -0.00763849
In       1.55044209       0.83693358       0.57789088        3       0.02049356       0.01106249       0.00763849
O        5.57179232       2.13493168       0.08118569        4      -0.00000000       0.01680862      -0.02434318
O        6.49156116       4.80675828       0.99276232        5      -0.01405209       0.02603188      -0.00000000
O        7.58053531       1.91666465       2.25671210        6       0.01405209      -0.00922326      -0.02434318
O        3.75320355       4.20132369       1.96767287        7      -0.01405209       0.00922326       0.02434318
O        5.76194653       3.98305666       4.14319929        8      -0.00000000      -0.01680862       0.02434318
O        4.84217770       1.31123006       3.23162266        9       0.01405209      -0.02603188       0.00000000
10
Lattice="5.4789645875874085 -0.08933974919647332 -0.06168784142049096 2.9317390859732346 4.62946438312254 -0.06168784142049255 2.9317390859732257 1.5825620971896641 4.351004834853445" Properties=species:S:1:pos:R:3:spacegroup_kinds:I:1:forces:R:3 spacegroup="P 1" unit_cell=conventional occupancy="_JSON {\"0\": {\"In\": 1}, \"1\": {\"In\": 1}, \"2\": {\"In\": 1}, \"3\": {\"In\": 1}, \"4\": {\"O\": 1}, \"5\": {\"O\": 1}, \"6\": {\"O\": 1}, \"7\": {\"O\": 1}, \"8\": {\"O\": 1}, \"9\": {\"O\": 1}}" n_minim_iter=5 energy=-11285.853734749131 stress="-0.21058012520689892 -0.00011915522712490164 -8.22750132103688e-05 -0.00011915522712490164 -0.21042370729751583 -4.441231292691652e-05 -8.22750132103688e-05 -4.441231292691652e-05 -0.210390053001806" free_energy=-11285.853734749131 pbc="T T T"
In       9.78980700       5.28456900       3.64892064        0      -0.00572228      -0.00308891      -0.00213285
In       7.22385715       3.89946110       2.69252309        1       0.00572228       0.00308891       0.00213285
In       4.11858562       2.22322564       1.53510606        2      -0.00572228      -0.00308891      -0.00213285
In       1.55263577       0.83811774       0.57870852        3       0.00572228       0.00308891       0.00213285
O        5.57509299       2.13750106       0.08252608        4       0.00000000       0.00464557      -0.00672797
O        6.49630592       4.80972511       0.99521945        5      -0.00388372       0.00719469      -0.00000000
O        7.58561915       1.91979100       2.25802849        6       0.00388372      -0.00254912      -0.00672797
O        3.75682362       4.20289575       1.96960066        7      -0.00388372       0.00254912       0.00672797
O        5.76734978       3.98518569       4.14510308        8       0.00000000      -0.00464557       0.00672797
O        4.84613685       1.31296163       3.23240971        9       0.00388372      -0.00719469       0.00000000
