10
Lattice="5.326383916632705 -0.13340803113402736 -0.09211637085210145 2.8111734351640023 4.5260874105084214 -0.09211637085211033 2.8111734351639894 1.5174803748404362 4.265115002589729" Properties=species:S:1:pos:R:3:spacegroup_kinds:I:1:forces:R:3 spacegroup="P 1" unit_cell=conventional occupancy="_JSON {\"0\": {\"In\": 1}, \"1\": {\"In\": 1}, \"2\": {\"In\": 1}, \"3\": {\"In\": 1}, \"4\": {\"O\": 1}, \"5\": {\"O\": 1}, \"6\": {\"O\": 1}, \"7\": {\"O\": 1}, \"8\": {\"O\": 1}, \"9\": {\"O\": 1}}" n_minim_iter=1 energy=-11284.10893911049 stress="-0.321578751808614 0.006326553902674057 0.004368396569124681 0.006326553902674057 -0.32988377007134 0.0023580743818985127 0.004368396569124681 0.0023580743818985127 -0.33167064679596864" free_energy=-11284.10893911049 pbc="T T T"
In       9.47720949       5.11582787       3.53240726        0       0.13746720       0.07420523       0.05123767
In       6.94588670       3.74941177       2.58891614        1      -0.13746720      -0.07420523      -0.05123767
In       4.00284410       2.16074800       1.49196613        2       0.13746720       0.07420523       0.05123767
In       1.47152130       0.79433189       0.54847501        3      -0.13746720      -0.07420523      -0.05123767
O        5.40037466       2.05757043       0.03752566        4      -0.00000000      -0.02258007       0.03270171
O        6.26528811       4.67549148       0.92810420        5       0.01887705      -0.03497025      -0.00000000
O        7.34663464       1.81469877       2.17008316        6      -0.01887705       0.01239018       0.03270171
O        3.60209615       4.09546100       1.91079911        7       0.01887705      -0.01239018      -0.03270171
O        5.54835614       3.85258934       4.04335661        8       0.00000000       0.02258007      -0.03270171
O        4.68344268       1.23466829       3.15277807        9      -0.01887705       0.03497025       0.00000000
10
Lattice="5.295542844422667 -0.16673849869278473 -0.11513059034262396 2.7663858280428575 4.518593276061265 -0.11513059034263293 2.7663858280428437 1.493303881852754 4.266261098871267" Properties=species:S:1:pos:R:3:spacegroup_kinds:I:1:forces:R:3 spacegroup="P 1" unit_cell=conventional occupancy="_JSON {\"0\": {\"In\": 1}, \"1\": {\"In\": 1}, \"2\": {\"In\": 1}, \"3\": {\"In\": 1}, \"4\": {\"O\": 1}, \"5\": {\"O\": 1}, \"6\": {\"O\": 1}, \"7\": {\"O\": 1}, \"8\": {\"O\": 1}, \"9\": {\"O\": 1}}" n_minim_iter=2 energy=-11284.119305675682 stress="-0.3222888537475533 -0.0008286084748487849 -0.0005721425089105456 -0.0008286084748487849 -0.3212011196315188 -0.00030884434916498166 -0.0005721425089105456 -0.00030884434916498166 -0.3209670868250283" free_energy=-11284.119305675682 pbc="T T T"
In       9.37424675       5.06024826       3.49403032        0       0.29658867       0.16009951       0.11054646
In       6.86822501       3.70748974       2.55996957        1      -0.29658867      -0.16009951      -0.11054646
In       3.96008950       2.13766893       1.47603036        2       0.29658867       0.16009951       0.11054646
In       1.45406776       0.78491041       0.54196961        3      -0.29658867      -0.16009951      -0.11054646
O        5.35485005       2.02802897       0.00991147        4       0.00000000      -0.11780009       0.17060462
O        6.19454897       4.64405438       0.89386939        5       0.09848147      -0.18243958      -0.00000000
O        7.28153696       1.76784360       2.14304202        6      -0.09848147       0.06463949       0.17060462
O        3.54677755       4.07731507       1.89295791        7       0.09848147      -0.06463949      -0.17060462
O        5.47346446       3.81712970       4.02608846        8       0.00000000       0.11780009      -0.17060462
O        4.63376553       1.20110429       3.14213053        9      -0.09848147       0.18243958       0.00000000
10
Lattice="5.259273803644651 -0.20640717978193887 -0.1425212572114857 2.7133209978789288 4.510039249057339 -0.14252125721149486 2.7133209978789155 1.4646593175008205 4.2679666611224745" Properties=species:S:1:pos:R:3:spacegroup_kinds:I:1:forces:R:3 spacegroup="P 1" unit_cell=conventional occupancy="_JSON {\"0\": {\"In\": 1}, \"1\": {\"In\": 1}, \"2\": {\"In\": 1}, \"3\": {\"In\": 1}, \"4\": {\"O\": 1}, \"5\": {\"O\": 1}, \"6\": {\"O\": 1}, \"7\": {\"O\": 1}, \"8\": {\"O\": 1}, \"9\": {\"O\": 1}}" n_minim_iter=3 energy=-11284.138242152103 stress="-0.3093409013060437 -0.0014131411121743364 -0.0009757540792312652 -0.0014131411121743364 -0.3074858372555419 -0.0005267151603430566 -0.0009757540792312652 -0.0005267151603430566 -0.3070867085984445" free_energy=-11284.138242152103 pbc="T T T"
In       9.26761614       5.00268872       3.45428626        0       0.11450406       0.06180966       0.04267870
In       6.76125757       3.64974837       2.52009996        1      -0.11450406      -0.06180966      -0.04267870
In       3.92465824       2.11854302       1.46282419        2       0.11450406       0.06180966       0.04267870
In       1.41829967       0.76560268       0.52863789        3      -0.11450406      -0.06180966      -0.04267870
O        5.30111586       1.98691361      -0.01406331        4      -0.00000000       0.06936622      -0.10046001
O        6.11600805       4.59752932       0.85320978        5      -0.05799051       0.10742899      -0.00000000
O        7.19954466       1.71560283       2.11992002        6       0.05799051      -0.03806276      -0.10046001
O        3.48637115       4.05268857       1.86300413        7      -0.05799051       0.03806276       0.10046001
O        5.38479995       3.78137779       3.99698746        8      -0.00000000      -0.06936622       0.10046001
O        4.56990776       1.17076208       3.12971437        9       0.05799051      -0.10742899      -0.00000000
10
Lattice="5.275590886540781 -0.18849597188562006 -0.13015381984687083 2.737248396823253 4.513852140650795 -0.13015381984687982 2.7372483968232406 1.4775754036678326 4.267150347826333" Properties=species:S:1:pos:R:3:spacegroup_kinds:I:1:forces:R:3 spacegroup="P 1" unit_cell=conventional occupancy="_JSON {\"0\": {\"In\": 1}, \"1\": {\"In\": 1}, \"2\": {\"In\": 1}, \"3\": {\"In\": 1}, \"4\": {\"O\": 1}, \"5\": {\"O\": 1}, \"6\": {\"O\": 1}, \"7\": {\"O\": 1}, \"8\": {\"O\": 1}, \"9\": {\"O\": 1}}" n_minim_iter=4 energy=-11284.142484568667 stress="-0.30929378533247576 0.002909351278308913 0.0020088661756528722 0.002909351278308913 -0.31311296016985213 0.0010843923590464599 0.0020088661756528722 0.0010843923590464599 -0.31393467956865484" free_energy=-11284.142484568667 pbc="T T T"
In       9.32703591       5.03476370       3.47643358        0       0.04264705       0.02302102       0.01589569
In       6.79809562       3.66963367       2.53383048        1      -0.04264705      -0.02302102      -0.01589569
In       3.95199207       2.13329791       1.47301223        2       0.04264705       0.02302102       0.01589569
In       1.42305178       0.76816788       0.53040913        3      -0.04264705      -0.02302102      -0.01589569
O        5.32531737       2.00555705      -0.00338845        4       0.00000000       0.06970729      -0.10095395
O        6.15131403       4.61864318       0.87155686        5      -0.05827564       0.10795720      -0.00000000
O        7.23656911       1.73911255       2.13018672        6       0.05827564      -0.03824991      -0.10095395
O        3.51351858       4.06381903       1.87665599        7      -0.05827564       0.03824991       0.10095395
O        5.42477032       3.79737454       4.01023116        8       0.00000000      -0.06970729       0.10095395
O        4.59877366       1.18428841       3.13528585        9       0.05827564      -0.10795720       0.00000000
10
Lattice="5.253481831049907 -0.21279095553369262 -0.14692916466343325 2.7048059476304807 4.508700048305631 -0.14692916466344216 2.7048059476304678 1.4600628662533934 4.268276084276632" Properties=species:S:1:pos:R:3:spacegroup_kinds:I:1:forces:R:3 spacegroup="P 1" unit_cell=conventional occupancy="_JSON {\"0\": {\"In\": 1}, \"1\": {\"In\": 1}, \"2\": {\"In\": 1}, \"3\": {\"In\": 1}, \"4\": {\"O\": 1}, \"5\": {\"O\": 1}, \"6\": {\"O\": 1}, \"7\": {\"O\": 1}, \"8\": {\"O\": 1}, \"9\": {\"O\": 1}}" n_minim_iter=5 energy=-11284.152339346585 stress="-0.30319804892439817 -7.331737542909674e-05 -5.0624617541830317e-05 -7.331737542909674e-05 -0.3031018034595949 -2.732733163891697e-05 -5.0624617541830317e-05 -2.732733163891697e-05 -0.30308109564272273" free_energy=-11284.152339346585 pbc="T T T"
In       9.27452638       5.00641888       3.45686189        0      -0.00309339      -0.00166982      -0.00115299
In       6.72011422       3.62753907       2.50476475        1       0.00309339       0.00166982       0.00115299
In       3.94297951       2.12843290       1.46965301        2      -0.00309339      -0.00166982      -0.00115299
In       1.38856736       0.74955309       0.51755587        3       0.00309339       0.00166982       0.00115299
O        5.29251435       1.99007555      -0.03205626        4      -0.00000000       0.00492712      -0.00713572
O        6.09526241       4.60519814       0.84667528        5      -0.00411909       0.00763073      -0.00000000
O        7.19457224       1.70185639       2.10208178        6       0.00411909      -0.00270362      -0.00713572
O        3.46852149       4.05411558       1.87233597        7      -0.00411909       0.00270362       0.00713572
O        5.37057938       3.76589641       4.00647402        8      -0.00000000      -0.00492712       0.00713572
O        4.56783133       1.15077383       3.12774248        9       0.00411909      -0.00763073       0.00000000
