10
Lattice="5.253481831049907 -0.21279095553369262 -0.14692916466343325 2.7048059476304807 4.508700048305631 -0.14692916466344216 2.7048059476304678 1.4600628662533934 4.268276084276632" Properties=species:S:1:pos:R:3:spacegroup_kinds:I:1:forces:R:3 spacegroup="P 1" unit_cell=conventional occupancy="_JSON {\"0\": {\"In\": 1}, \"1\": {\"In\": 1}, \"2\": {\"In\": 1}, \"3\": {\"In\": 1}, \"4\": {\"O\": 1}, \"5\": {\"O\": 1}, \"6\": {\"O\": 1}, \"7\": {\"O\": 1}, \"8\": {\"O\": 1}, \"9\": {\"O\": 1}}" n_minim_iter=5 energy=-11284.152339346585 stress="-0.30319804892439817 -7.331737542909674e-05 -5.0624617541830317e-05 -7.331737542909674e-05 -0.3031018034595949 -2.732733163891697e-05 -5.0624617541830317e-05 -2.732733163891697e-05 -0.30308109564272273" free_energy=-11284.152339346585 pbc="T T T"
In       9.27452638       5.00641888       3.45686189        0      -0.00309339      -0.00166982      -0.00115299
In       6.72011422       3.62753907       2.50476475        1       0.00309339       0.00166982       0.00115299
In       3.94297951       2.12843290       1.46965301        2      -0.00309339      -0.00166982      -0.00115299
In       1.38856736       0.74955309       0.51755587        3       0.00309339       0.00166982       0.00115299
O        5.29251435       1.99007555      -0.03205626        4      -0.00000000       0.00492712      -0.00713572
O        6.09526241       4.60519814       0.84667528        5      -0.00411909       0.00763073      -0.00000000
O        7.19457224       1.70185639       2.10208178        6       0.00411909      -0.00270362      -0.00713572
O        3.46852149       4.05411558       1.87233597        7      -0.00411909       0.00270362       0.00713572
O        5.37057938       3.76589641       4.00647402        8      -0.00000000      -0.00492712       0.00713572
O        4.56783133       1.15077383       3.12774248        9       0.00411909      -0.00763073       0.00000000
