10
Lattice="5.814876592850954 -0.0102758217077676 -0.007095310493647809 3.182159179096325 4.866904390009193 -0.007095310493650487 3.1821591790963186 1.7177396611302898 4.55369950057113" Properties=species:S:1:pos:R:3:spacegroup_kinds:I:1:forces:R:3 spacegroup="P 1" unit_cell=conventional occupancy="_JSON {\"0\": {\"In\": 1}, \"1\": {\"In\": 1}, \"2\": {\"In\": 1}, \"3\": {\"In\": 1}, \"4\": {\"O\": 1}, \"5\": {\"O\": 1}, \"6\": {\"O\": 1}, \"7\": {\"O\": 1}, \"8\": {\"O\": 1}, \"9\": {\"O\": 1}}" n_minim_iter=6 energy=-11287.639156115307 stress="-0.025381922705285668 -5.017354264585458e-06 -3.4644118166531055e-06 -5.017354264585458e-06 -0.02537533630570914 -1.8700995697242343e-06 -3.4644118166531055e-06 -1.8700995697242343e-06 -0.025373919199609428" free_energy=-11287.639156115307 pbc="T T T"
In      10.44904654       5.64042861       3.89463669        0      -0.00000936      -0.00000505      -0.00000349
In       7.81974590       4.22112375       2.91462663        1       0.00000936       0.00000505       0.00000349
In       4.35944906       2.35324449       1.62488225        2      -0.00000936      -0.00000505      -0.00000349
In       1.73014842       0.93393963       0.64487219        3       0.00000936       0.00000505       0.00000349
O        5.95223704       2.28479688       0.19526023        4      -0.00000000      -0.00002767       0.00004008
O        7.00297089       5.07291145       1.12778191        5       0.00002313      -0.00004286      -0.00000000
O        8.08366237       2.14266161       2.47210998        6      -0.00002313       0.00001518       0.00004008
O        4.09553259       4.43170663       2.06739891        7       0.00002313      -0.00001518      -0.00004008
O        6.22695792       4.28957136       4.34424866        8      -0.00000000       0.00002767      -0.00004008
O        5.17622407       1.50145679       3.41172697        9      -0.00002313       0.00004286      -0.00000000
