10
Lattice="5.381298962273603 -0.1347834686228052 -0.0930660911105008 2.8401566477736755 4.5727513950452146 -0.09306609111050275 2.840156647773663 1.5331256053284767 4.3090883602554335" Properties=species:S:1:pos:R:3:spacegroup_kinds:I:1:forces:R:3 spacegroup="P 1" unit_cell=conventional occupancy="_JSON {\"0\": {\"In\": 1}, \"1\": {\"In\": 1}, \"2\": {\"In\": 1}, \"3\": {\"In\": 1}, \"4\": {\"O\": 1}, \"5\": {\"O\": 1}, \"6\": {\"O\": 1}, \"7\": {\"O\": 1}, \"8\": {\"O\": 1}, \"9\": {\"O\": 1}}" n_minim_iter=6 energy=-11285.076177863893 stress="-0.25821813084162387 -2.8103267653498633e-05 -1.9404912091981707e-05 -2.8103267653498633e-05 -0.25818123900823614 -1.0474832209500468e-05 -1.9404912091981707e-05 -1.0474832209500468e-05 -0.2581733015001774" free_energy=-11285.076177863893 pbc="T T T"
In       9.57491957       5.16857209       3.56882640        0       0.00124980       0.00067464       0.00046583
In       7.01749883       3.78806822       2.61560788        1      -0.00124980      -0.00067464      -0.00046583
In       4.04411344       2.18302532       1.50734831        2       0.00124980       0.00067464       0.00046583
In       1.48669270       0.80252146       0.55412979        3      -0.00124980      -0.00067464      -0.00046583
O        5.45605255       2.07878399       0.03791255        4       0.00000000      -0.00067028       0.00097074
O        6.32988327       4.72369582       0.93767296        5       0.00056036      -0.00103808       0.00000000
O        7.42237848       1.83340832       2.19245673        6      -0.00056036       0.00036780       0.00097074
O        3.63923378       4.13768522       1.93049946        7       0.00056036      -0.00036780      -0.00097074
O        5.60555972       3.89230955       4.08504364        8      -0.00000000       0.00067028      -0.00097074
O        4.73172900       1.24739772       3.18528323        9      -0.00056036       0.00103808       0.00000000
