10
Lattice="5.631838584991457 -0.041123851105273654 -0.028395441316975138 3.055933119195895 4.730810690519117 -0.028395441316973975 3.055933119195888 1.6496024319232945 4.433981044976439" Properties=species:S:1:pos:R:3:spacegroup_kinds:I:1:forces:R:3 spacegroup="P 1" unit_cell=conventional occupancy="_JSON {\"0\": {\"In\": 1}, \"1\": {\"In\": 1}, \"2\": {\"In\": 1}, \"3\": {\"In\": 1}, \"4\": {\"O\": 1}, \"5\": {\"O\": 1}, \"6\": {\"O\": 1}, \"7\": {\"O\": 1}, \"8\": {\"O\": 1}, \"9\": {\"O\": 1}}" n_minim_iter=1 energy=-11286.93652627639 stress="-0.12276290974797767 0.00251171828587097 0.0017343061824990748 0.00251171828587097 -0.12606010227330008 0.000936184001597395 0.0017343061824990748 0.000936184001597395 -0.12676951390770788" free_energy=-11286.93652627639 pbc="T T T"
In      10.09623283       5.44997864       3.76313367        0       0.03147941       0.01699268       0.01173321
In       7.51932442       4.05895528       2.80265158        1      -0.03147941      -0.01699268      -0.01173321
In       4.22438041       2.28033401       1.57453859        2       0.03147941       0.01699268       0.01173321
In       1.64747201       0.88931064       0.61405650        3      -0.03147941      -0.01699268      -0.01173321
O        5.75184550       2.20838651       0.14724070        4      -0.00000000       0.06259122      -0.09064807
O        6.74131942       4.92723793       1.06590210        5      -0.05232657       0.09693639       0.00000000
O        7.81830471       2.03561554       2.36423122        6       0.05232657      -0.03434517      -0.09064807
O        3.92540012       4.30367374       2.01295895        7      -0.05232657       0.03434517       0.09064807
O        5.99185933       4.13090277       4.22994947        8      -0.00000000      -0.06259122       0.09064807
O        5.00238542       1.41205135       3.31128807        9       0.05232657      -0.09693639       0.00000000
10
Lattice="5.620328575519554 -0.0531606910738322 -0.03670671017392574 3.039554467328668 4.727793142261991 -0.03670671017392455 3.0395544673286605 1.640761183473816 4.434103981346959" Properties=species:S:1:pos:R:3:spacegroup_kinds:I:1:forces:R:3 spacegroup="P 1" unit_cell=conventional occupancy="_JSON {\"0\": {\"In\": 1}, \"1\": {\"In\": 1}, \"2\": {\"In\": 1}, \"3\": {\"In\": 1}, \"4\": {\"O\": 1}, \"5\": {\"O\": 1}, \"6\": {\"O\": 1}, \"7\": {\"O\": 1}, \"8\": {\"O\": 1}, \"9\": {\"O\": 1}}" n_minim_iter=2 energy=-11286.93830741394 stress="-0.12434099634064898 -0.0003831609667027657 -0.00026456726441840346 -0.0003831609667027657 -0.12383801179688869 -0.00014281425268467717 -0.00026456726441840346 -0.00014281425268467717 -0.12372979152184985" free_energy=-11286.93830741394 pbc="T T T"
In      10.05839947       5.42955607       3.74903217        0       0.06617329       0.03572055       0.02466454
In       7.49075681       4.04353439       2.79200367        1      -0.06617329      -0.03572055      -0.02466454
In       4.20868071       2.27185926       1.56868689        2       0.06617329       0.03572055       0.02466454
In       1.64103805       0.88583757       0.61165839        3      -0.06617329      -0.03572055      -0.02466454
O        5.73502367       2.19805932       0.13654862        4      -0.00000000       0.04489701      -0.06502234
O        6.71491620       4.91631566       1.05346593        5      -0.03753413       0.06953299       0.00000000
O        7.79468561       2.01828889       2.35360061        6       0.03753413      -0.02463597      -0.06502234
O        3.90475191       4.29710475       2.00708996        7      -0.03753413       0.02463597       0.06502234
O        5.96441385       4.11733432       4.22414195        8       0.00000000      -0.04489701       0.06502234
O        4.98452132       1.39907798       3.30722463        9       0.03753413      -0.06953299       0.00000000
10
Lattice="5.621211256588098 -0.0522361080076459 -0.036068298558939546 3.0408117697667874 4.728023729109272 -0.03606829855893838 3.0408117697667802 1.6414398793348466 4.434093416664848" Properties=species:S:1:pos:R:3:spacegroup_kinds:I:1:forces:R:3 spacegroup="P 1" unit_cell=conventional occupancy="_JSON {\"0\": {\"In\": 1}, \"1\": {\"In\": 1}, \"2\": {\"In\": 1}, \"3\": {\"In\": 1}, \"4\": {\"O\": 1}, \"5\": {\"O\": 1}, \"6\": {\"O\": 1}, \"7\": {\"O\": 1}, \"8\": {\"O\": 1}, \"9\": {\"O\": 1}}" n_minim_iter=3 energy=-11286.94174986861 stress="-0.12259646933961003 -9.294202403146549e-05 -6.417516208929139e-05 -9.294202403146549e-05 -0.12247446212814807 -3.464195691398757e-05 -6.417516208929139e-05 -3.464195691398757e-05 -0.12244821150955759" free_energy=-11286.94174986861 pbc="T T T"
In      10.06633895       5.43384183       3.75199143        0       0.05714671       0.03084798       0.02130009
In       7.48791325       4.04199943       2.79094381        1      -0.05714671      -0.03084798      -0.02130009
In       4.21492155       2.27522808       1.57101302        2       0.05714671       0.03084798       0.02130009
In       1.63649585       0.88338568       0.60996540        3      -0.05714671      -0.03084798      -0.02130009
O        5.73631433       2.20275502       0.13171731        4       0.00000000       0.00097923      -0.00141817
O        6.71367964       4.92319804       1.05442091        5      -0.00081864       0.00151655       0.00000000
O        7.79976079       2.01747761       2.34876402        6       0.00081864      -0.00053732      -0.00141817
O        3.90307401       4.29974991       2.01319280        7      -0.00081864       0.00053732       0.00141817
O        5.96652047       4.11447249       4.23023951        8      -0.00000000      -0.00097923       0.00141817
O        4.98915516       1.39402947       3.30753592        9       0.00081864      -0.00151655      -0.00000000
10
Lattice="5.621045908602246 -0.0524092862181383 -0.03618787567978917 3.040576261867423 4.727980524036062 -0.036187875679788 3.040576261867415 1.6413127514205974 4.434095381251372" Properties=species:S:1:pos:R:3:spacegroup_kinds:I:1:forces:R:3 spacegroup="P 1" unit_cell=conventional occupancy="_JSON {\"0\": {\"In\": 1}, \"1\": {\"In\": 1}, \"2\": {\"In\": 1}, \"3\": {\"In\": 1}, \"4\": {\"O\": 1}, \"5\": {\"O\": 1}, \"6\": {\"O\": 1}, \"7\": {\"O\": 1}, \"8\": {\"O\": 1}, \"9\": {\"O\": 1}}" n_minim_iter=4 energy=-11286.942479453157 stress="-0.12164524698555544 4.278937897807114e-05 2.954546371501754e-05 4.278937897807114e-05 -0.12170141762729907 1.5948735951976322e-05 2.954546371501754e-05 1.5948735951976322e-05 -0.1217135030905872" free_energy=-11286.942479453157 pbc="T T T"
In      10.06937014       5.43547808       3.75312123        0       0.03948708       0.02131525       0.01471788
In       7.48392752       4.03984791       2.78945822        1      -0.03948708      -0.02131525      -0.01471788
In       4.21827093       2.27703609       1.57226142        2       0.03948708       0.02131525       0.01471788
In       1.63282830       0.88140592       0.60859840        3      -0.03948708      -0.02131525      -0.01471788
O        5.73607257       2.20448723       0.12883977        4      -0.00000000      -0.01576522       0.02283207
O        6.71172780       4.92595379       1.05424203        5       0.01317981      -0.02441595       0.00000000
O        7.80099359       2.01619644       2.34588746        6      -0.01317981       0.00865072       0.02283207
O        3.90120485       4.30068756       2.01583218        7       0.01317981      -0.00865072      -0.02283207
O        5.96612587       4.11239677       4.23287987        8       0.00000000       0.01576522      -0.02283207
O        4.99047064       1.39093021       3.30747760        9      -0.01317981       0.02441595      -0.00000000
10
Lattice="5.619724705201498 -0.05379337218499092 -0.03714356759076357 3.0386941859298933 4.727635469612584 -0.03714356759076241 3.0386941859298853 1.6402968008344698 4.434111318328016" Properties=species:S:1:pos:R:3:spacegroup_kinds:I:1:forces:R:3 spacegroup="P 1" unit_cell=conventional occupancy="_JSON {\"0\": {\"In\": 1}, \"1\": {\"In\": 1}, \"2\": {\"In\": 1}, \"3\": {\"In\": 1}, \"4\": {\"O\": 1}, \"5\": {\"O\": 1}, \"6\": {\"O\": 1}, \"7\": {\"O\": 1}, \"8\": {\"O\": 1}, \"9\": {\"O\": 1}}" n_minim_iter=5 energy=-11286.942788607312 stress="-0.12110877265929962 8.377536786740994e-05 5.784571307277778e-05 8.377536786740994e-05 -0.1212187465834284 3.122530038301109e-05 5.784571307277778e-05 3.122530038301109e-05 -0.12124240816099506" free_energy=-11286.942788607312 pbc="T T T"
In      10.06854006       5.43503000       3.75281184        0       0.00634917       0.00342730       0.00236651
In       7.47712957       4.03617836       2.78692444        1      -0.00634917      -0.00342730      -0.00236651
In       4.21998352       2.27796055       1.57289975        2       0.00634917       0.00342730       0.00236651
In       1.62857303       0.87910891       0.60701235        3      -0.00634917      -0.00342730      -0.00236651
O        5.73414063       2.20389223       0.12675362        4      -0.00000000      -0.01175397       0.01702275
O        6.70819997       4.92561608       1.05281248        5       0.00982638      -0.01820363       0.00000000
O        7.79877547       2.01388032       2.34380928        6      -0.00982638       0.00644966       0.01702275
O        3.89833762       4.30025859       2.01601491        7       0.00982638      -0.00644966      -0.01702275
O        5.96297246       4.11024668       4.23307057        8       0.00000000       0.01175397      -0.01702275
O        4.98891312       1.38852282       3.30701171        9      -0.00982638       0.01820363       0.00000000
10
Lattice="5.619277192381948 -0.05426231163714671 -0.03746736369295307 3.0380565901495826 4.727518663986094 -0.03746736369295192 3.038056590149574 1.6399526246012992 4.434116812933817" Properties=species:S:1:pos:R:3:spacegroup_kinds:I:1:forces:R:3 spacegroup="P 1" unit_cell=conventional occupancy="_JSON {\"0\": {\"In\": 1}, \"1\": {\"In\": 1}, \"2\": {\"In\": 1}, \"3\": {\"In\": 1}, \"4\": {\"O\": 1}, \"5\": {\"O\": 1}, \"6\": {\"O\": 1}, \"7\": {\"O\": 1}, \"8\": {\"O\": 1}, \"9\": {\"O\": 1}}" n_minim_iter=6 energy=-11286.942861789661 stress="-0.12130230983078023 3.3996790123871344e-05 2.3474306902707226e-05 3.3996790123871344e-05 -0.12134693822945375 1.2671505606218235e-05 2.3474306902707226e-05 1.2671505606218235e-05 -0.12135654030851041" free_energy=-11286.942861789661 pbc="T T T"
In      10.06686595       5.43412631       3.75218785        0       0.00211600       0.00114222       0.00078869
In       7.47621962       4.03568717       2.78658528        1      -0.00211600      -0.00114222      -0.00078869
In       4.21917076       2.27752182       1.57259681        2       0.00211600       0.00114222       0.00078869
In       1.62852443       0.87908268       0.60699424        3      -0.00211600      -0.00114222      -0.00078869
O        5.73348619       2.20295888       0.12710666        4      -0.00000000      -0.00395283       0.00572471
O        6.70761665       4.92436842       1.05232816        5       0.00330459      -0.00612184       0.00000000
O        7.79741233       2.01349721       2.34416506        6      -0.00330459       0.00216901       0.00572471
O        3.89797805       4.29971178       2.01501703        7       0.00330459      -0.00216901      -0.00572471
O        5.96190419       4.11025010       4.23207543        8      -0.00000000       0.00395283      -0.00572471
O        4.98777374       1.38884057       3.30685393        9      -0.00330459       0.00612184      -0.00000000
