10
Lattice="6.395501438848742 0.06926325685329458 0.04782530557185031 3.5672557825496662 5.308664826011543 0.04782530557185145 3.5672557825496662 1.9256160343374307 4.9473439725864825" Properties=species:S:1:pos:R:3:spacegroup_kinds:I:1:forces:R:3 spacegroup="P 1" unit_cell=conventional occupancy="_JSON {\"0\": {\"In\": 1}, \"1\": {\"In\": 1}, \"2\": {\"In\": 1}, \"3\": {\"In\": 1}, \"4\": {\"O\": 1}, \"5\": {\"O\": 1}, \"6\": {\"O\": 1}, \"7\": {\"O\": 1}, \"8\": {\"O\": 1}, \"9\": {\"O\": 1}}" n_minim_iter=4 energy=-11285.602961248142 stress="0.11285089853226384 -0.00018088184291429682 -0.00012489636981273766 -0.00018088184291429682 0.11308834644337427 -6.741945856381905e-05 -0.00012489636981273766 -6.741945856381905e-05 0.11313943484991963" free_energy=-11285.602961248142 pbc="T T T"
In      11.50218329       6.20891518       4.28716868        0      -0.00166651      -0.00089959      -0.00062115
In       8.79283623       4.74640101       3.27732320        1       0.00166651       0.00089959       0.00062115
In       4.73717678       2.55714312       1.76567139        2      -0.00166651      -0.00089959      -0.00062115
In       2.02782973       1.09462895       0.75582591        3       0.00166651       0.00089959       0.00062115
O        6.58025398       2.55803677       0.27447549        4       0.00000000       0.00155548      -0.00225274
O        7.78075242       5.59511315       1.30857395        5      -0.00130039       0.00240901       0.00000000
O        8.94701132       2.44058171       2.74814748        6       0.00130039      -0.00085353      -0.00225274
O        4.58300170       4.86296242       2.29484711        7      -0.00130039       0.00085353       0.00225274
O        6.94975904       4.74550736       4.76851910        8      -0.00000000      -0.00155548       0.00225274
O        5.74926060       1.70843098       3.73442063        9       0.00130039      -0.00240901      -0.00000000
