80
Lattice="11.755483966606075 0.003804747051781291 0.0026271243750547843 6.453671648228811 9.82555545616025 0.0026271243750539456 6.453671648228808 3.483712512842581 9.18723538675956" Properties=species:S:1:pos:R:3:spacegroup_kinds:I:1:forces:R:3 spacegroup="P 1" unit_cell=conventional occupancy="_JSON {\"0\": {\"In\": 1}, \"1\": {\"In\": 1}, \"2\": {\"In\": 1}, \"3\": {\"In\": 1}, \"4\": {\"O\": 1}, \"5\": {\"O\": 1}, \"6\": {\"O\": 1}, \"7\": {\"O\": 1}, \"8\": {\"O\": 1}, \"9\": {\"O\": 1}}" n_minim_iter=3 energy=-90301.49436244987 stress="0.00018989399189853247 0.00023752009873492628 0.00015923989063317947 0.00023752009873492628 -7.166595060540125e-05 7.983969649890866e-05 0.00015923989063317947 7.983969649890866e-05 -0.00016833091766705905" free_energy=-11287.686850916043 pbc="T T T"
In      10.57102683       5.70627396       3.94010198        0       0.00544608       0.00332816       0.00222829
In      16.44876881       5.70817633       3.94141554        0       0.00395072       0.00302739       0.00187925
In      13.79786265      10.61905169       3.94141554        0       0.00291186       0.00098799       0.00098706
In      19.67560464      10.62095406       3.94272910        0       0.00555802       0.00291878       0.00170458
In      13.79786265       7.44813022       8.53371967        0      -0.00732730      -0.01251305       0.00362834
In      19.67560464       7.45003259       8.53503324        0       0.00695265       0.00051203       0.00257810
In      17.02469848      12.36090794       8.53503324        0       0.00788413       0.00793803       0.00457106
In      22.90244046      12.36281032       8.53634680        0       0.00360257       0.00289009       0.00118859
In       7.92609363       4.27853059       2.95426525        1      -0.00298887      -0.00299005       0.00304914
In      13.80383561       4.28043296       2.95557881        1      -0.00552500      -0.00310606      -0.00188464
In      11.15292945       9.19130832       2.95557881        1      -0.00510734      -0.00017716      -0.00641642
In      17.03067144       9.19321069       2.95689237        1      -0.00426765      -0.00239952      -0.00175714
In      11.15292945       6.02038685       7.54788294        1      -0.01250573      -0.01124755      -0.00212858
In      17.03067144       6.02228922       7.54919651        1      -0.00079921      -0.00273814      -0.00439445
In      14.37976528      10.93316457       7.54919651        1      -0.00374562      -0.00025635      -0.00215670
In      20.25750726      10.93506695       7.55051007        1      -0.00570125      -0.00150717      -0.00182442
In       4.40532001       2.37800578       1.64197957        2      -0.01346905      -0.00293091       0.01540893
In      10.28306199       2.37990815       1.64329313        2       0.00801118       0.00192061       0.00384875
In       7.63215583       7.29078351       1.64329313        2       0.00634593       0.00764793       0.00230935
In      13.50989782       7.29268588       1.64460669        2       0.00384851       0.00431223       0.00161790
In       7.63215583       4.11986204       6.23559726        2       0.00572593       0.00231255       0.00286465
In      13.50989782       4.12176441       6.23691083        2       0.00230787      -0.00031860       0.00283806
In      10.85899166       9.03263976       6.23691083        2       0.00326130       0.00350115      -0.00171529
In      16.73673364       9.03454214       6.23822439        2       0.00553048       0.00331413       0.00090629
In       1.76038681       0.95026241       0.65614284        3       0.00051593      -0.00295296      -0.00185720
In       7.63812879       0.95216478       0.65745640        3      -0.00674539      -0.01320770       0.00057527
In       4.98722263       5.86304014       0.65745640        3      -0.00898895       0.00081634      -0.00067941
In      10.86496462       5.86494251       0.65876996        3      -0.00369378      -0.00099473      -0.00161695
In       4.98722263       2.69211867       5.24976053        3      -0.00531216      -0.00432028      -0.00309609
In      10.86496462       2.69402104       5.25107410        3      -0.00397046      -0.00149823       0.00103043
In       8.21405846       7.60489639       5.25107410        3      -0.00452681      -0.00225703      -0.00159343
In      14.09180044       7.60679877       5.25238766        3      -0.00418712      -0.00100336      -0.00421867
O        6.01591411       2.30161558       0.21504588        4       0.05832875       0.05962906      -0.03000961
O       11.89946638       2.31236397       0.21636181        4      -0.00316939       0.00410728      -0.00443088
O        9.24856022       7.22323933       0.21636181        4      -0.00182703       0.00085061      -0.00435739
O       15.12630221       7.22514170       0.21767537        4       0.00080632       0.00203889      -0.00451607
O        9.24856022       4.05231786       4.80866594        4      -0.00121193       0.00350418      -0.00581629
O       15.12630221       4.05422023       4.80997951        4      -0.00028592       0.00321916      -0.00420896
O       12.47539605       8.96509558       4.80997951        4       0.00023509       0.00287470      -0.00278170
O       18.35313803       8.96699796       4.81129307        4      -0.00001155       0.00287379      -0.00481869
O        7.09560450       5.12098255       1.15037477        5      -0.00550546      -0.00654974      -0.00537859
O       12.97334648       5.12288492       1.15168833        5      -0.00287481       0.00499111       0.00029140
O       10.32244032      10.03376028       1.15168833        5      -0.01116694      -0.00380368       0.00272463
O       16.20018231      10.03566265       1.15300189        5      -0.00257675       0.00591332       0.00017969
O       10.32244032       6.86283881       5.74399246        5      -0.00211628       0.00561091      -0.00003998
O       16.20018231       6.86474118       5.74530603        5      -0.00305526       0.00474805       0.00069297
O       13.54927615      11.77561653       5.74530603        5      -0.00256893       0.00478878      -0.00009811
O       19.42701813      11.77751891       5.74661959        5      -0.00203721       0.00405710      -0.00069019
O        8.17468014       2.18188133       2.51185710        6       0.00142741       0.00070726      -0.00841912
O       14.05242212       2.18378370       2.51317066        6       0.00218856      -0.00115887      -0.00381376
O       11.40151596       7.09465906       2.51317066        6       0.00192130      -0.00356616      -0.00366371
O       17.27925795       7.09656143       2.51448422        6       0.00372782      -0.00303032      -0.00537953
O       11.40151596       3.92373759       7.10547479        6       0.00130272      -0.00629839      -0.01277048
O       17.27925795       3.92563996       7.10678836        6       0.00192017      -0.00064444      -0.00439417
O       14.62835179       8.83651531       7.10678836        6       0.00208347      -0.00297610      -0.00362984
O       20.50609377       8.83841769       7.10810192        6       0.00372520      -0.00188297      -0.00451677
O        4.15673351       4.47465504       2.08438772        7      -0.00070410       0.00252336       0.00387457
O       10.03447549       4.47655741       2.08570128        7      -0.00427881       0.00079332       0.00415618
O        7.38356933       9.38743277       2.08570128        7      -0.00420021       0.00097522       0.00527291
O       13.26131132       9.38933514       2.08701484        7      -0.00069597      -0.00130898       0.00785296
O        7.38356933       6.21651130       6.67800541        7      -0.00315032       0.00170978       0.00407418
O       13.26131132       6.21841367       6.67931898        7      -0.00150794       0.00477638       0.01247744
O       10.61040516      11.12928902       6.67931898        7      -0.00197980       0.00047371       0.00556608
O       16.48814714      11.13119140       6.68063254        7      -0.00314136       0.00054529       0.00436487
O        6.30968924       4.34607477       4.38119657        8       0.00010036      -0.00349524       0.00359832
O       12.18743122       4.34797714       4.38251013        8       0.00028757      -0.00203494       0.00454705
O        9.53652506       9.25885250       4.38251013        8      -0.00067398      -0.00390955       0.00586701
O       15.41426705       9.26075487       4.38382369        8       0.00032237      -0.00293466       0.00479510
O        9.53652506       6.08793103       8.97481426        8      -0.00908832       0.00145561       0.00236428
O       15.41426705       6.08983340       8.97612783        8      -0.01300771      -0.00098323       0.00587873
O       12.76336089      11.00070875       8.97612783        8      -0.00027082      -0.00517765       0.00614558
O       18.64110287      11.00261113       8.97744139        8      -0.00003236      -0.00414786       0.00385692
O        5.23580914       1.53555382       3.44587005        9       0.00338489      -0.00377320       0.00434815
O       11.11355112       1.53745619       3.44718361        9       0.00210362      -0.00500694      -0.00076639
O        8.46264496       6.44833155       3.44718361        9       0.00195615      -0.00556225      -0.00157852
O       14.34038695       6.45023392       3.44849717        9       0.00340014      -0.00575716       0.00066800
O        8.46264496       3.27741008       8.03948774        9       0.00143876      -0.00507481      -0.00070695
O       14.34038695       3.27931245       8.04080131        9       0.00538724      -0.00505547      -0.00212989
O       11.68948079       8.19018780       8.04080131        9       0.01031441      -0.01255983       0.00710913
O       17.56722277       8.19209018       8.04211487        9       0.00178538      -0.00548295       0.00033479
