80
Lattice="11.755483966606075 0.003804747051781291 0.0026271243750547843 6.453671648228811 9.82555545616025 0.0026271243750539456 6.453671648228808 3.483712512842581 9.18723538675956" Properties=species:S:1:pos:R:3:spacegroup_kinds:I:1:forces:R:3 spacegroup="P 1" unit_cell=conventional occupancy="_JSON {\"0\": {\"In\": 1}, \"1\": {\"In\": 1}, \"2\": {\"In\": 1}, \"3\": {\"In\": 1}, \"4\": {\"O\": 1}, \"5\": {\"O\": 1}, \"6\": {\"O\": 1}, \"7\": {\"O\": 1}, \"8\": {\"O\": 1}, \"9\": {\"O\": 1}}" n_minim_iter=3 energy=-90301.4944214232 stress="0.0002216216099808754 0.0002021568740814695 0.0001436608018799629 0.0002021568740814695 -9.737446873888188e-05 8.035732492000604e-05 0.0001436608018799629 8.035732492000604e-05 -0.0001258485860992943" free_energy=-11287.686850916043 pbc="T T T"
In      10.57102683       5.70627396       3.94010198        0       0.00422756       0.00190110       0.00136574
In      16.44876881       5.70817633       3.94141554        0       0.00572771       0.00221648       0.00173779
In      13.79786265      10.61905169       3.94141554        0       0.00679395       0.00421679       0.00265567
In      19.67560464      10.62095406       3.94272910        0       0.00412277       0.00230142       0.00190391
In      13.79786265       7.44813022       8.53371967        0       0.01720595       0.01751121      -0.00009918
In      19.67560464       7.45003259       8.53503324        0       0.00269326       0.00472320       0.00102343
In      17.02469848      12.36090794       8.53503324        0       0.00186205      -0.00270442      -0.00093420
In      22.90244046      12.36281032       8.53634680        0       0.00607803       0.00234598       0.00242639
In       7.92609363       4.27853059       2.95426525        1      -0.00668096      -0.00217407      -0.00656206
In      13.80383561       4.28043296       2.95557881        1      -0.00414235      -0.00214877      -0.00173727
In      11.15292945       9.19130832       2.95557881        1      -0.00459072      -0.00505574       0.00283020
In      17.03067144       9.19321069       2.95689237        1      -0.00541259      -0.00282749      -0.00185896
In      11.15292945       6.02038685       7.54788294        1       0.00274945       0.00608242      -0.00146827
In      17.03067144       6.02228922       7.54919651        1      -0.00884608      -0.00248442       0.00077257
In      14.37976528      10.93316457       7.54919651        1      -0.00592243      -0.00493343      -0.00144780
In      20.25750726      10.93506695       7.55051007        1      -0.00396756      -0.00374400      -0.00180817
In       4.40532001       2.37800578       1.64197957        2       0.02215305       0.00832461      -0.01102162
In      10.28306199       2.37990815       1.64329313        2       0.00147133       0.00331005      -0.00033384
In       7.63215583       7.29078351       1.64329313        2       0.00335162      -0.00239035       0.00130106
In      13.50989782       7.29268588       1.64460669        2       0.00584024       0.00088867       0.00201056
In       7.63215583       4.11986204       6.23559726        2       0.00393963       0.00291431       0.00071822
In      13.50989782       4.12176441       6.23691083        2       0.00739004       0.00551412       0.00069438
In      10.85899166       9.03263976       6.23691083        2       0.00641775       0.00174389       0.00529263
In      16.73673364       9.03454214       6.23822439        2       0.00414984       0.00192570       0.00270779
In       1.76038681       0.95026241       0.65614284        3      -0.00876019      -0.00181531      -0.00186658
In       7.63812879       0.95216478       0.65745640        3      -0.00271631       0.00805324      -0.00415006
In       4.98722263       5.86304014       0.65745640        3      -0.00065675      -0.00602444      -0.00289437
In      10.86496462       5.86494251       0.65876996        3      -0.00599257      -0.00421628      -0.00201004
In       4.98722263       2.69211867       5.24976053        3      -0.00436646      -0.00090905      -0.00052308
In      10.86496462       2.69402104       5.25107410        3      -0.00572257      -0.00376054      -0.00469381
In       8.21405846       7.60489639       5.25107410        3      -0.00514467      -0.00297396      -0.00202737
In      14.09180044       7.60679877       5.25238766        3      -0.00549074      -0.00421032       0.00066195
O        6.02753469       2.31930762       0.21505062        4      -0.05827101      -0.05281363       0.01950075
O       11.89946638       2.31236397       0.21636181        4       0.00317460       0.00220599      -0.00472787
O        9.24856022       7.22323933       0.21636181        4       0.00185031       0.00548940      -0.00482045
O       15.12630221       7.22514170       0.21767537        4      -0.00081896       0.00430968      -0.00462907
O        9.24856022       4.05231786       4.80866594        4       0.00119669       0.00281659      -0.00336829
O       15.12630221       4.05422023       4.80997951        4       0.00030212       0.00308951      -0.00496639
O       12.47539605       8.96509558       4.80997951        4      -0.00023701       0.00344751      -0.00638260
O       18.35313803       8.96699796       4.81129307        4       0.00000290       0.00344378      -0.00432279
O        7.09560450       5.12098255       1.15037477        5       0.00044002       0.01717807       0.00577536
O       12.97334648       5.12288492       1.15168833        5      -0.00241181       0.00480344      -0.00029527
O       10.32244032      10.03376028       1.15168833        5       0.00524448       0.01306534      -0.00245079
O       16.20018231      10.03566265       1.15300189        5      -0.00272061       0.00388283      -0.00018496
O       10.32244032       6.86283881       5.74399246        5      -0.00315852       0.00416988       0.00005021
O       16.20018231       6.86474118       5.74530603        5      -0.00220530       0.00505345      -0.00069599
O       13.54927615      11.77561653       5.74530603        5      -0.00271071       0.00499836       0.00008570
O       19.42701813      11.77751891       5.74661959        5      -0.00324344       0.00571327       0.00067448
O        8.17468014       2.18188133       2.51185710        6       0.00392782      -0.00420349      -0.00069492
O       14.05242212       2.18378370       2.51317066        6       0.00317489      -0.00233420      -0.00539456
O       11.40151596       7.09465906       2.51317066        6       0.00336617       0.00012634      -0.00548690
O       17.27925795       7.09656143       2.51448422        6       0.00154732      -0.00040385      -0.00375576
O       11.40151596       3.92373759       7.10547479        6       0.00379772       0.00243224       0.00316100
O       17.27925795       3.92563996       7.10678836        6       0.00336669      -0.00282875      -0.00476318
O       14.62835179       8.83651531       7.10678836        6       0.00306918      -0.00065332      -0.00538844
O       20.50609377       8.83841769       7.10810192        6       0.00154578      -0.00157756      -0.00464387
O        4.15673351       4.47465504       2.08438772        7      -0.00460690       0.00094648       0.00528404
O       10.03447549       4.47655741       2.08570128        7      -0.00128294       0.00251004       0.00486802
O        7.38356933       9.38743277       2.08570128        7      -0.00107901       0.00248988       0.00387003
O       13.26131132       9.38933514       2.08701484        7      -0.00459856       0.00483331       0.00127192
O        7.38356933       6.21651130       6.67800541        7      -0.00211761       0.00175505       0.00508506
O       13.26131132       6.21841367       6.67931898        7      -0.00390887      -0.00141382      -0.00310313
O       10.61040516      11.12928902       6.67931898        7      -0.00330232       0.00298802       0.00359297
O       16.48814714      11.13119140       6.68063254        7      -0.00210964       0.00298645       0.00480452
O        6.30968924       4.34607477       4.38119657        8      -0.00009639      -0.00280290       0.00557230
O       12.18743122       4.34797714       4.38251013        8      -0.00029505      -0.00428326       0.00459048
O        9.53652506       9.25885250       4.38251013        8       0.00068363      -0.00241363       0.00327894
O       15.41426705       9.26075487       4.38382369        8      -0.00032751      -0.00336873       0.00434938
O        9.53652506       6.08793103       8.97481426        8       0.00920379      -0.00776762       0.00687237
O       15.41426705       6.08983340       8.97612783        8       0.01284068      -0.00558151       0.00332662
O       12.76336089      11.00070875       8.97612783        8       0.00028811      -0.00109455       0.00298577
O       18.64110287      11.00261113       8.97744139        8      -0.00000750      -0.00236047       0.00525663
O        5.23580914       1.53555382       3.44587005        9       0.00187973      -0.00601814      -0.00435568
O       11.11355112       1.53745619       3.44718361        9       0.00316929      -0.00477361       0.00077420
O        8.46264496       6.44833155       3.44718361        9       0.00332513      -0.00422948       0.00156298
O       14.34038695       6.45023392       3.44849717        9       0.00187700      -0.00403822      -0.00065112
O        8.46264496       3.27741008       8.03948774        9       0.00415029      -0.00452803       0.00083430
O       14.34038695       3.27931245       8.04080131        9      -0.00007945      -0.00470308       0.00214711
O       11.68948079       8.19018780       8.04080131        9      -0.00501591       0.00217970      -0.00684944
O       17.56722277       8.19209018       8.04211487        9       0.00341942      -0.00432334      -0.00030929
